<?xml version="1.0"?>
<VTKFile type="UnstructuredGrid"  version="0.1"  >
<UnstructuredGrid>
<Piece  NumberOfPoints="1029" NumberOfCells="4320">
<Points>
<DataArray  type="Float64"  NumberOfComponents="3"  format="ascii">0 0 0  0.05 0 0  0.1 0 0  0.15 0 0  0.2 0 0  0.25 0 0  0.3 0 0  0.35 0 0  0.4 0 0  0.45 0 0  0.5 0 0  0.55 0 0  0.6 0 0  0.65 0 0  0.7 0 0  0.75 0 0  0.8 0 0  0.85 0 0  0.9 0 0  0.95 0 0  1 0 0  0 0.03333333333333333 0  0.05 0.03333333333333333 0  0.1 0.03333333333333333 0  0.15 0.03333333333333333 0  0.2 0.03333333333333333 0  0.25 0.03333333333333333 0  0.3 0.03333333333333333 0  0.35 0.03333333333333333 0  0.4 0.03333333333333333 0  0.45 0.03333333333333333 0  0.5 0.03333333333333333 0  0.55 0.03333333333333333 0  0.6 0.03333333333333333 0  0.65 0.03333333333333333 0  0.7 0.03333333333333333 0  0.75 0.03333333333333333 0  0.8 0.03333333333333333 0  0.85 0.03333333333333333 0  0.9 0.03333333333333333 0  0.95 0.03333333333333333 0  1 0.03333333333333333 0  0 0.06666666666666667 0  0.05 0.06666666666666667 0  0.1 0.06666666666666667 0  0.15 0.06666666666666667 0  0.2 0.06666666666666667 0  0.25 0.06666666666666667 0  0.3 0.06666666666666667 0  0.35 0.06666666666666667 0  0.4 0.06666666666666667 0  0.45 0.06666666666666667 0  0.5 0.06666666666666667 0  0.55 0.06666666666666667 0  0.6 0.06666666666666667 0  0.65 0.06666666666666667 0  0.7 0.06666666666666667 0  0.75 0.06666666666666667 0  0.8 0.06666666666666667 0  0.85 0.06666666666666667 0  0.9 0.06666666666666667 0  0.95 0.06666666666666667 0  1 0.06666666666666667 0  0 0.1 0  0.05 0.1 0  0.1 0.1 0  0.15 0.1 0  0.2 0.1 0  0.25 0.1 0  0.3 0.1 0  0.35 0.1 0  0.4 0.1 0  0.45 0.1 0  0.5 0.1 0  0.55 0.1 0  0.6 0.1 0  0.65 0.1 0  0.7 0.1 0  0.75 0.1 0  0.8 0.1 0  0.85 0.1 0  0.9 0.1 0  0.95 0.1 0  1 0.1 0  0 0.1333333333333333 0  0.05 0.1333333333333333 0  0.1 0.1333333333333333 0  0.15 0.1333333333333333 0  0.2 0.1333333333333333 0  0.25 0.1333333333333333 0  0.3 0.1333333333333333 0  0.35 0.1333333333333333 0  0.4 0.1333333333333333 0  0.45 0.1333333333333333 0  0.5 0.1333333333333333 0  0.55 0.1333333333333333 0  0.6 0.1333333333333333 0  0.65 0.1333333333333333 0  0.7 0.1333333333333333 0  0.75 0.1333333333333333 0  0.8 0.1333333333333333 0  0.85 0.1333333333333333 0  0.9 0.1333333333333333 0  0.95 0.1333333333333333 0  1 0.1333333333333333 0  0 0.1666666666666667 0  0.05 0.1666666666666667 0  0.1 0.1666666666666667 0  0.15 0.1666666666666667 0  0.2 0.1666666666666667 0  0.25 0.1666666666666667 0  0.3 0.1666666666666667 0  0.35 0.1666666666666667 0  0.4 0.1666666666666667 0  0.45 0.1666666666666667 0  0.5 0.1666666666666667 0  0.55 0.1666666666666667 0  0.6 0.1666666666666667 0  0.65 0.1666666666666667 0  0.7 0.1666666666666667 0  0.75 0.1666666666666667 0  0.8 0.1666666666666667 0  0.85 0.1666666666666667 0  0.9 0.1666666666666667 0  0.95 0.1666666666666667 0  1 0.1666666666666667 0  0 0.2 0  0.05 0.2 0  0.1 0.2 0  0.15 0.2 0  0.2 0.2 0  0.25 0.2 0  0.3 0.2 0  0.35 0.2 0  0.4 0.2 0  0.45 0.2 0  0.5 0.2 0  0.55 0.2 0  0.6 0.2 0  0.65 0.2 0  0.7 0.2 0  0.75 0.2 0  0.8 0.2 0  0.85 0.2 0  0.9 0.2 0  0.95 0.2 0  1 0.2 0  0 0 0.03333333333333333  0.05 0 0.03333333333333333  0.1 0 0.03333333333333333  0.15 0 0.03333333333333333  0.2 0 0.03333333333333333  0.25 0 0.03333333333333333  0.3 0 0.03333333333333333  0.35 0 0.03333333333333333  0.4 0 0.03333333333333333  0.45 0 0.03333333333333333  0.5 0 0.03333333333333333  0.55 0 0.03333333333333333  0.6 0 0.03333333333333333  0.65 0 0.03333333333333333  0.7 0 0.03333333333333333  0.75 0 0.03333333333333333  0.8 0 0.03333333333333333  0.85 0 0.03333333333333333  0.9 0 0.03333333333333333  0.95 0 0.03333333333333333  1 0 0.03333333333333333  0 0.03333333333333333 0.03333333333333333  0.05 0.03333333333333333 0.03333333333333333  0.1 0.03333333333333333 0.03333333333333333  0.15 0.03333333333333333 0.03333333333333333  0.2 0.03333333333333333 0.03333333333333333  0.25 0.03333333333333333 0.03333333333333333  0.3 0.03333333333333333 0.03333333333333333  0.35 0.03333333333333333 0.03333333333333333  0.4 0.03333333333333333 0.03333333333333333  0.45 0.03333333333333333 0.03333333333333333  0.5 0.03333333333333333 0.03333333333333333  0.55 0.03333333333333333 0.03333333333333333  0.6 0.03333333333333333 0.03333333333333333  0.65 0.03333333333333333 0.03333333333333333  0.7 0.03333333333333333 0.03333333333333333  0.75 0.03333333333333333 0.03333333333333333  0.8 0.03333333333333333 0.03333333333333333  0.85 0.03333333333333333 0.03333333333333333  0.9 0.03333333333333333 0.03333333333333333  0.95 0.03333333333333333 0.03333333333333333  1 0.03333333333333333 0.03333333333333333  0 0.06666666666666667 0.03333333333333333  0.05 0.06666666666666667 0.03333333333333333  0.1 0.06666666666666667 0.03333333333333333  0.15 0.06666666666666667 0.03333333333333333  0.2 0.06666666666666667 0.03333333333333333  0.25 0.06666666666666667 0.03333333333333333  0.3 0.06666666666666667 0.03333333333333333  0.35 0.06666666666666667 0.03333333333333333  0.4 0.06666666666666667 0.03333333333333333  0.45 0.06666666666666667 0.03333333333333333  0.5 0.06666666666666667 0.03333333333333333  0.55 0.06666666666666667 0.03333333333333333  0.6 0.06666666666666667 0.03333333333333333  0.65 0.06666666666666667 0.03333333333333333  0.7 0.06666666666666667 0.03333333333333333  0.75 0.06666666666666667 0.03333333333333333  0.8 0.06666666666666667 0.03333333333333333  0.85 0.06666666666666667 0.03333333333333333  0.9 0.06666666666666667 0.03333333333333333  0.95 0.06666666666666667 0.03333333333333333  1 0.06666666666666667 0.03333333333333333  0 0.1 0.03333333333333333  0.05 0.1 0.03333333333333333  0.1 0.1 0.03333333333333333  0.15 0.1 0.03333333333333333  0.2 0.1 0.03333333333333333  0.25 0.1 0.03333333333333333  0.3 0.1 0.03333333333333333  0.35 0.1 0.03333333333333333  0.4 0.1 0.03333333333333333  0.45 0.1 0.03333333333333333  0.5 0.1 0.03333333333333333  0.55 0.1 0.03333333333333333  0.6 0.1 0.03333333333333333  0.65 0.1 0.03333333333333333  0.7 0.1 0.03333333333333333  0.75 0.1 0.03333333333333333  0.8 0.1 0.03333333333333333  0.85 0.1 0.03333333333333333  0.9 0.1 0.03333333333333333  0.95 0.1 0.03333333333333333  1 0.1 0.03333333333333333  0 0.1333333333333333 0.03333333333333333  0.05 0.1333333333333333 0.03333333333333333  0.1 0.1333333333333333 0.03333333333333333  0.15 0.1333333333333333 0.03333333333333333  0.2 0.1333333333333333 0.03333333333333333  0.25 0.1333333333333333 0.03333333333333333  0.3 0.1333333333333333 0.03333333333333333  0.35 0.1333333333333333 0.03333333333333333  0.4 0.1333333333333333 0.03333333333333333  0.45 0.1333333333333333 0.03333333333333333  0.5 0.1333333333333333 0.03333333333333333  0.55 0.1333333333333333 0.03333333333333333  0.6 0.1333333333333333 0.03333333333333333  0.65 0.1333333333333333 0.03333333333333333  0.7 0.1333333333333333 0.03333333333333333  0.75 0.1333333333333333 0.03333333333333333  0.8 0.1333333333333333 0.03333333333333333  0.85 0.1333333333333333 0.03333333333333333  0.9 0.1333333333333333 0.03333333333333333  0.95 0.1333333333333333 0.03333333333333333  1 0.1333333333333333 0.03333333333333333  0 0.1666666666666667 0.03333333333333333  0.05 0.1666666666666667 0.03333333333333333  0.1 0.1666666666666667 0.03333333333333333  0.15 0.1666666666666667 0.03333333333333333  0.2 0.1666666666666667 0.03333333333333333  0.25 0.1666666666666667 0.03333333333333333  0.3 0.1666666666666667 0.03333333333333333  0.35 0.1666666666666667 0.03333333333333333  0.4 0.1666666666666667 0.03333333333333333  0.45 0.1666666666666667 0.03333333333333333  0.5 0.1666666666666667 0.03333333333333333  0.55 0.1666666666666667 0.03333333333333333  0.6 0.1666666666666667 0.03333333333333333  0.65 0.1666666666666667 0.03333333333333333  0.7 0.1666666666666667 0.03333333333333333  0.75 0.1666666666666667 0.03333333333333333  0.8 0.1666666666666667 0.03333333333333333  0.85 0.1666666666666667 0.03333333333333333  0.9 0.1666666666666667 0.03333333333333333  0.95 0.1666666666666667 0.03333333333333333  1 0.1666666666666667 0.03333333333333333  0 0.2 0.03333333333333333  0.05 0.2 0.03333333333333333  0.1 0.2 0.03333333333333333  0.15 0.2 0.03333333333333333  0.2 0.2 0.03333333333333333  0.25 0.2 0.03333333333333333  0.3 0.2 0.03333333333333333  0.35 0.2 0.03333333333333333  0.4 0.2 0.03333333333333333  0.45 0.2 0.03333333333333333  0.5 0.2 0.03333333333333333  0.55 0.2 0.03333333333333333  0.6 0.2 0.03333333333333333  0.65 0.2 0.03333333333333333  0.7 0.2 0.03333333333333333  0.75 0.2 0.03333333333333333  0.8 0.2 0.03333333333333333  0.85 0.2 0.03333333333333333  0.9 0.2 0.03333333333333333  0.95 0.2 0.03333333333333333  1 0.2 0.03333333333333333  0 0 0.06666666666666667  0.05 0 0.06666666666666667  0.1 0 0.06666666666666667  0.15 0 0.06666666666666667  0.2 0 0.06666666666666667  0.25 0 0.06666666666666667  0.3 0 0.06666666666666667  0.35 0 0.06666666666666667  0.4 0 0.06666666666666667  0.45 0 0.06666666666666667  0.5 0 0.06666666666666667  0.55 0 0.06666666666666667  0.6 0 0.06666666666666667  0.65 0 0.06666666666666667  0.7 0 0.06666666666666667  0.75 0 0.06666666666666667  0.8 0 0.06666666666666667  0.85 0 0.06666666666666667  0.9 0 0.06666666666666667  0.95 0 0.06666666666666667  1 0 0.06666666666666667  0 0.03333333333333333 0.06666666666666667  0.05 0.03333333333333333 0.06666666666666667  0.1 0.03333333333333333 0.06666666666666667  0.15 0.03333333333333333 0.06666666666666667  0.2 0.03333333333333333 0.06666666666666667  0.25 0.03333333333333333 0.06666666666666667  0.3 0.03333333333333333 0.06666666666666667  0.35 0.03333333333333333 0.06666666666666667  0.4 0.03333333333333333 0.06666666666666667  0.45 0.03333333333333333 0.06666666666666667  0.5 0.03333333333333333 0.06666666666666667  0.55 0.03333333333333333 0.06666666666666667  0.6 0.03333333333333333 0.06666666666666667  0.65 0.03333333333333333 0.06666666666666667  0.7 0.03333333333333333 0.06666666666666667  0.75 0.03333333333333333 0.0666666666666666
[...]
<PointData  Vectors="f_11"> 
<DataArray  type="Float64"  Name="f_11"  NumberOfComponents="3" format="ascii">0.0000000000000000e+00 0.0000000000000000e+00 0.0000000000000000e+00  -2.9587766757751801e-09 -2.1977244056700765e-09 -8.5164774973923923e-10  -5.1236633240192548e-09 -5.2610245731926467e-09 -7.6448846850460926e-10  -6.7926724560985254e-09 -9.3396291894405056e-09 -4.4098176750901774e-10  -7.9616093910127108e-09 -1.4171611957396191e-08 -3.0306107992273621e-11  -8.6079041356420770e-09 -1.9469612286318081e-08 4.1274164831314611e-10  -8.7138978549534594e-09 -2.4943224434943447e-08 8.6077599907285313e-10  -8.2649282555569971e-09 -3.0294403574366959e-08 1.2927825562566849e-09  -7.2496807244354302e-09 -3.5207624973643792e-08 1.6855563682853529e-09  -5.6722288476151651e-09 -3.9341443068631857e-08 2.0097979559162968e-09  -3.5849541789009269e-09 -4.2322118868365688e-08 2.2316985586780507e-09  -1.1275467663469094e-09 -4.3781311761865435e-08 2.3243092983078573e-09  1.4942689506949735e-09 -4.3485811805413857e-08 2.2639322265147389e-09  4.0459798653228455e-09 -4.1366373128070056e-08 2.0363628665590920e-09  6.2840589329094576e-09 -3.7504317388946374e-08 1.6393912768267980e-09  7.9618900805189256e-09 -3.2120653422280327e-08 1.0824339458059043e-09  8.8305688728839952e-09 -2.5577395465745438e-08 3.9049465181704232e-10  8.6430417807832826e-09 -1.8391060782924824e-08 -3.7976636012255031e-10  7.1696902544147121e-09 -1.1248451561164738e-08 -1.0967227379602172e-09  4.2132977731194252e-09 -5.0041983830994081e-09 -1.4394118752503260e-09  0.0000000000000000e+00 0.0000000000000000e+00 0.0000000000000000e+00  0.0000000000000000e+00 0.0000000000000000e+00 0.0000000000000000e+00  -1.6596562891265712e-09 -1.7560320826885946e-09 -6.7428524462892478e-10  -3.0682079571161735e-09 -4.8937328955117998e-09 -5.5892808206903563e-10  -4.1821472953731550e-09 -9.0597955527472404e-09 -2.9617314922745699e-10  -4.9773122839127912e-09 -1.3983093371079033e-08 2.7542671458688332e-11  -5.4356069601486602e-09 -1.9374955353979200e-08 3.7510799051856547e-10  -5.5466644400461111e-09 -2.4944829013862751e-08 7.2541131529938763e-10  -5.3041322524450548e-09 -3.0395802109444227e-08 1.0603213010486393e-09  -4.7031226238929286e-09 -3.5413107271331935e-08 1.3600168207311426e-09  -3.7463963792092950e-09 -3.9652239801429782e-08 1.6019053975615839e-09  -2.4680332194717696e-09 -4.2726721322660125e-08 1.7634074080919554e-09  -9.5994556648605972e-10 -4.4247924810132562e-08 1.8298517447594750e-09  6.4628440940056864e-10 -4.3973319953845925e-08 1.7832535695953755e-09  2.2025304213871695e-09 -4.1831625200640086e-08 1.6107144718697847e-09  3.5551459382554759e-09 -3.7904323283632821e-08 1.3093673130126026e-09  4.5497802733435502e-09 -3.2412495201160275e-08 8.8656397741838475e-10  5.0348004610480064e-09 -2.5717329225559335e-08 3.6208309598723276e-10  4.8667275456231788e-09 -1.8337200043360343e-08 -2.2136414231273755e-10  3.9315704652270687e-09 -1.0975954568067629e-08 -7.6440463976474307e-10  2.2068403066927807e-09 -4.5377966682227305e-09 -1.0032237187402058e-09  0.0000000000000000e+00 0.0000000000000000e+00 0.0000000000000000e+00  0.0000000000000000e+00 0.0000000000000000e+00 0.0000000000000000e+00  -7.5164497231679498e-10 -1.5390027615228793e-09 -3.4006734553572074e-10  -1.4168505364828066e-09 -4.6465721769592169e-09 -2.6781617673178841e-10  -1.9870818468066927e-09 -8.8611757099008512e-09 -8.5636474058278359e-11  -2.4118617959106099e-09 -1.3841216287564201e-08 1.3423306801543144e-10  -2.6789798242886066e-09 -1.9290505972316302e-08 3.6995336841641909e-10  -2.7869322010158277e-09 -2.4918513949906108e-08 6.0569181542599546e-10  -2.7359054612973087e-09 -3.0432133371309535e-08 8.2414865110710967e-10  -2.5188906736127337e-09 -3.5522217177577643e-08 1.0061237335927210e-09  -2.1198274149213904e-09 -3.9846002101608814e-08 1.1344034307878566e-09  -1.5401297172660731e-09 -4.3002381039756764e-08 1.2011699080526430e-09  -8.3301883384157839e-10 -4.4576932721910889e-08 1.2152736697934911e-09  -7.4526558465696420e-11 -4.4323945405781582e-08 1.1673200728312502e-09  6.6052187256971326e-10 -4.2175778258093052e-08 1.0443265144425737e-09  1.3017058404838998e-09 -3.8216923522861106e-08 8.4170559196088322e-10  1.7827329454494131e-09 -3.2670121359633682e-08 5.6534830229027627e-10  2.0434384179278391e-09 -2.5895297150219308e-08 2.3320033426697883e-10  2.0280176647963817e-09 -1.8406543492523229e-08 -1.1967324328815279e-10  1.6783753958320262e-09 -1.0917766823650692e-08 -4.2767349833993734e-10  9.6541221504944154e-10 -4.3886805351379702e-09 -5.4246026891741762e-10  0.0000000000000000e+00 0.0000000000000000e+00 0.0000000000000000e+00  0.0000000000000000e+00 0.0000000000000000e+00 0.0000000000000000e+00  2.6208285635596217e-11 -1.4671135214780968e-09 1.3164157044866593e-11  3.1310071943240219e-11 -4.5405294653606948e-09 6.1779523922236662e-11  1.2545473686070959e-12 -8.7600210589955375e-09 1.4908211224802346e-10  -4.9906514467727348e-11 -1.3758644412352966e-08 2.5759088874567895e-10  -1.2010195056894610e-10 -1.9226344928872374e-08 3.7679167626040469e-10  -2.1544090399115396e-10 -2.4871561280762816e-08 4.9496038761092558e-10  -3.4184030311075148e-10 -3.0407424002352096e-08 5.9434532641481084e-10  -4.8962222532517276e-10 -3.5537555291504004e-08 6.5351124612698635e-10  -6.1715211559370526e-10 -3.9927433962939427e-08 6.5885647102999881e-10  -6.8645607200086635e-10 -4.3155777644382397e-08 6.1974063008656268e-10  -7.1482570750653127e-10 -4.4774146835597223e-08 5.7544803449870678e-10  -7.2863420128268891e-10 -4.4541579574439353e-08 5.2349081576578730e-10  -7.3449862131087029e-10 -4.2400850103950552e-08 4.4905693225449148e-10  -7.2410175281366401e-10 -3.8442489575392553e-08 3.4529493023275554e-10  -6.8135576986009511e-10 -3.2892244949706641e-08 2.1633741354737940e-10  -5.8431004262209212e-10 -2.6109427569784951e-08 7.7909219568110851e-11  -4.0819224712067105e-10 -1.8592273598269369e-08 -4.0636605795439534e-11  -1.7060791821066814e-10 -1.1026037014605802e-08 -1.0486663209372680e-10  3.9676665977978980e-12 -4.3963807382060778e-09 -1.0173182607556309e-10  0.0000000000000000e+00 0.0000000000000000e+00 0.0000000000000000e+00  0.0000000000000000e+00 0.0000000000000000e+00 0.0000000000000000e+00  8.0963129069796506e-10 -1.5079763449568348e-09 3.6567905398251413e-10  1.4734041126719253e-09 -4.5640191156400951e-09 4.0026191972118321e-10  1.9845918634604179e-09 -8.7606447709413477e-09 3.9187425496494573e-10  2.3147444566453784e-09 -1.3739398094172277e-08 3.8650099532217604e-10  2.4489959322979722e-09 -1.9186219186595116e-08 3.8953088938436326e-10  2.3767302962002487e-09 -2.4807754142167020e-08 3.9348147120872837e-10  2.0889840949180124e-09 -3.0322149369569213e-08 3.8104907193535141e-10  1.5903073902646445e-09 -3.5452563605570618e-08 3.2610533957883515e-10  9.4031534071325410e-10 -3.9882670448180082e-08 2.1490234714564685e-10  2.1683066532938012e-10 -4.3164388488736502e-08 7.5917391060206633e-11  -5.5846594675923073e-10 -4.4810920145387400e-08 -1.8571756973047525e-11  -1.3568307198639822e-09 -4.4595572778190576e-08 -6.9058735267273370e-11  -2.1140703637834913e-09 -4.2475658739895786e-08 -9.3124830653620045e-11  -2.7444248891770744e-09 -3.8548635940562043e-08 -9.9237260234769878e-11  -3.1537766458831027e-09 -3.3043217235404174e-08 -8.5161835747677815e-11  -3.2460306325799217e-09 -2.6319129516020979e-08 -3.9295188628573485e-11  -2.9278491840417278e-09 -1.8865601821505995e-08 5.7866363604980801e-11  -2.1185467789764984e-09 -1.1288305064877798e-08 2.2527374472186489e-10  -9.8569166670822765e-10 -4.5050827716986800e-09 3.5934913275242008e-10  0.0000000000000000e+00 0.0000000000000000e+00 0.0000000000000000e+00  0.0000000000000000e+00 0.0000000000000000e+00 0.0000000000000000e+00  1.7265392301172361e-09 -1.6790054438833656e-09 7.1221606764151432e-10  3.1044170952576634e-09 -4.7168830798656572e-09 7.2562026034128960e-10  4.1769389312352601e-09 -8.8629045750818912e-09 6.2599712018942023e-10  4.8969497116990665e-09 -1.3783972998034456e-08 5.1181289953512761e-10  5.2399729055460811e-09 -1.9170955617014979e-08 4.0456235917657542e-10  5.1957214203421509e-09 -2.4730228572879243e-08 3.0289375217461397e-10  4.7603699407765538e-09 -3.0179230209732500e-08 1.9571592872216499e-10  3.9308512713609007e-09 -3.5253947305302596e-08 5.9994309569750442e-11  2.7422049114710849e-09 -3.9673619863932872e-08 -1.2453101177321204e-10  1.2973587858417922e-09 -4.2966251438536664e-08 -3.1403087135280173e-10  -3.2040178167376773e-10 -4.4613862307921028e-08 -4.2641793356577601e-10  -2.0057223488060660e-09 -4.4410586638294191e-08 -4.6114965806418281e-10  -3.6151207380727306e-09 -4.2325859238926133e-08 -4.3161703904942224e-10  -4.9843258783197093e-09 -3.8461680755711540e-08 -3.4370157569454830e-10  -5.9426472128352109e-09 -3.3048115954061979e-08 -1.9594120206147612e-10  -6.3224518494857315e-09 -2.6445079515270955e-08 1.7327038558888639e-11  -5.9679069065513542e-09 -1.9141343292998284e-08 2.9880923740393883e-10  -4.7381015182245848e-09 -1.1739578652509999e-08 6.2826742153074552e-10  -2.4127141593101127e-09 -4.8106985471913536e-09 9.0787055769028891e-10  0.0000000000000000e+00 0.0000000000000000e+00 0.0000000000000000e+00  0.0000000000000000e+00 0.0000000000000000e+00 0.0000000000000000e+00  3.0004114996496572e-09 -2.0357975284642278e-09 1.0473380223334627e-09  5.1780177776345450e-09 -5.0105165124817947e-09 1.0008999385337459e-09  6.8375613421273124e-09 -9.0650017485709944e-09 8.2533641204508857e-10  7.9495710538487289e-09 -1.3886737719450257e-08 6.2188707972772454e-10  8.4943418608566550e-09 -1.9173164233356751e-08 4.2296603967894083e-10  8.4673732453415120e-09 -2.4632047931779487e-08 2.3436204115152490e-10  7.8736031408526132e-09 -2.9980370451905941e-08 5.5247390653052808e-11  6.7203675213328297e-09 -3.4945598989689222e-08 -1.1083757585201669e-10  4.9765332806909730e-09 -3.9269407332372353e-08 -2.5363461897349345e-10  2.6621963674658382e-09 -4.2522697401216785e-08 -3.5939838854647914e-10  8.9165098047401309e-12 -4.4147999412770626e-08 -4.3397547217262531e-10  -2.7623120639492405e-09 -4.3958288233615950e-08 -4.3962809230754975e-10  -5.4194475077828547e-09 -4.1930292016044365e-08 -3.6233550126654548e-10  -7.7174435841503374e-09 -3.8167802919215286e-08 -1.9787754900932485e-10  -9.4061122223194912e-09 -3.2900594240048602e-08 5.6574301654477656e-11  -1.0240531037075008e-08 -2.6486974798619614e-08 4.0057761711307330e-10  -9.9942585966560245e-09 -1.9415037243796762e-08 8.1740779863739623e-10  -8.4692447531848727e-09 -1.2300844967387723e-08 1.2331845234575223e-09  -5.4603862311118432e-09 -5.8955033371292930e-09 1.4077328078282666e-09  0.0000000000000000e+00 0.0000000000000000e+00 0.0000000000000000e+00  0.0000000000000000e+00 0.0000000000000000e+00 0.0000000000000000e+00  -2.8908141504919052e-09 -2.3940539425201887e-09 -4.7220686913442785e-10  -5.1798462733799024e-09 -5.4471914050746097e-09 -4.5169760349160465e-10  -6.9328820139096297e-09 -9.4705227003524064e-09 -2.0999598498783990e-10  -8.1524138096672354e-09 -1.4224452661068909e-08 1.1171471359576020e-10  -8.8285662076682669e-09 -1.9436287937226622e-08 4.6162688690717447e-10  -8.9502618941835818e-09 -2.4822035642833282e-08 8.1443828836993965e-10  -8.5054125988919981e-09 -3.0087540981519892e-08 1.1509834876717080e-09  -7.4830178121336731e-09 -3.4921797200649179e-08 1.4510221064335412e-09  -5.8853348356642357e-09 -3.8990042326049081e-08 1.6914658879824912e-09  -3.7599994442475859e-09 -4.1927008815070706e-08 1.8486396384695035e-09  -1.2427772937421691e-09 -4.3368192803523469e-08 1.9060391469702342e-09  1.4577683443074887e-09 -4.3086212042059720e-08 1.8475474996351105e-09  4.1007209829261023e-09 -4.1015405857918578e-08 1.6628237204428300e-09  6.4353962267180165e-09 -3.7237640089198297e-08 1.3513604986903325e-09  8.2070624973620221e-09 -3.1971834122095978e-08 9.2298298910423633e-10  9.1549472216422738e-09 -2.5573276203767287e-08 4.0099958789408801e-10  9.0116802262373837e-09 -1.8541092703116640e-08 -1.6526602017512493e-10  7.5165012174021680e-09 -1.1520437737698906e-08 -6.6666453081374954e-10  4.4498322606017072e-09 -5.2574857140086044e-09 -8.5106453501024618e-10  0.0000000000000000e+00 0.0000000000000000e+00 0.0000000000000000e+00  0.0000000000000000e+00 0.0000000000000000e+00 0.0000000000000000e+00  -1.5278953124746025e-09 -1.8810177337044963e-09 -3.4928202489831725e-10  -3.1194263353239257e-09 -5.0641118080062464e-09 -3.2027754589074337e-10  -4.3146515286234302e-09 -9.1847106062839038e-09 -1.1859430273001462e-10  -5.1493570175222231e-09 -1.4032520788111884e-08 1.4189322924497368e-10  -5.6252000941895087e-09 -1.9338932704538388e-08 4.2335868640717847e-10  -5.7390835023387344e-09 -2.4821037706287454e-08 7.0638856824079417e-10  -5.4871186848206340e-09 -3.0186066003691162e-08 9.7471871549058499e-10  -4.8656604896316298e-09 -3.5123908990590190e-08 1.2108791795756817e-09  -3.8784005546094469e-09 -3.9297300877278966e-08 1.3963330810661485e-09  -2.5588551546306159e-09 -4.2329345558943644e-08 1.5143954549613471e-09  -9.9754951341501394e-10 -4.3834878594289105e-08 1.5561587601580484e-09  6.7283817239242444e-10 -4.3576429527182487e-08 1.5093699160740261e-09  2.2996165264637814e-09 -4.1485827000936911e-08 1.3647646679006366e-09  3.7227140498582513e-09 -3.7644919818664009e-08 1.1212938208457666e-09  4.7797168910052425e-09 -3.2272597379305471e-08 7.8674508794862666e-10  5.3073795811700599e-09 -2.5723012534926752e-08 3.7943746697484270e-10  5.1444168756278505e-09 -1.8495629588573373e-08 -6.3364127378355319e-11  4.1530690053348895e-09 -1.1249966957948829e-08 -4.5932077177234902e-10  2.3062686334429884e-09 -4.7963766449237982e-09 -6.0881292369717150e-10  0.0000000000000000e+00 0.0000000000000000e+00 0.0000000000000000e+00  0.0000000000000000e+00 0.0000000000000000e+00 0.0000000000000000e+00  -6.7638870379922998e-10 -1.6820628629501008e-09 -1.7709616850627553e-10  -1.4591483574261622e-09 -4.8324596006334896e-09 -1.5119572097578024e-10  -2.0891458508745800e-09 -9.0022771362204299e-09 1.9102910731588754e-12  -2.5421047579025999e-09 -1.3904659110551461e-08 1.9275644571993290e-10  -2.8201674034238525e-09 -1.9265487488368519e-08 3.9830046869034022e-10  -2.9262725535335659e-09 -2.4802566042950984e-08 6.0422313385327901e-10  -2.8618882612990653e-09 -3.0226806662441930e-08 7.9535235453661517e-10  -2.6224320482177921e-09 -3.5233652128233375e-08 9.5433447085925641e-10  -2.1957250895129524e-09 -3.9488632501034903e-08 1.0654363424548889e-09  -1.5841467549818900e-09 -4.2601593761318089e-08 1.1214008044910639e-09  -8.3938265410498478e-10 -4.4158353025037659e-08 1.1304497586457694e-09  -3.6809850932018282e-11 -4.3919529619417365e-08 1.0861812546809969e-09  7.4615757460310477e-10 -4.1821429373134566e-08 9.7835217319613943e-10  1.4339715134252214e-09 -3.7949016610623494e-08 8.0391106786865787e-10  1.9534189452766148e-09 -3.2522830772435012e-08 5.6886375548409413e-10  2.2347917374631349e-09 -2.5896271779116492e-08 2.8907758761007815e-10  2.2101181908783788e-09 -1.8565465903771506e-08 -5.3306643567683180e-12  1.8110826930553073e-09 -1.1198561811879519e-08 -2.5710484824923420e-10  1.0140525849752353e-09 -4.6613141132690445e-09 -3.4503720143378288e-10  0.0000000000000000e+00 0.0000000000000000e+00 0.0000000000000000e+00  0.0000000000000000e+00 0.0000000000000000e+00 0.0000000000000000e+00  2.6590506571253594e-11 -1.6246824477987388e-09 1.5857234171113929e-11  -9.4989501136655335e-12 -4.7399027136164328e-09 5.6667267954124676e-11  -6.5755363204801744e-11 -8.9123783899091994e-09 1.4702195061630847e-10  -1.3188688181432462e-10 -1.3832055327067282e-08 2.6013013779422691e-10  -2.0753827894444785e-10 -1.9210555881164374e-08 3.8458338723422229e-10  -2.9869388125926993e-10 -2.4765043793092954e-08 5.0952861780150939e-10  -4.1058637879467773e-10 -3.0212842963420419e-08 6.1959086236903797e-10  -5.3690910061784186e-10 -3.5262997527086129e-08 6.9503220930074571e-10  -6.4326687545640086e-10 -3.9593151010932047e-08 7.2050599999896891e-10  -6.9233433857469876e-10 -4.2793271776017045e-08 7.0008859397900803e-10  -7.0016240778419859e-10 -4.4401716441173125e-08 6.6704414191285593e-10  -6.9099086580218770e-10 -4.4185795488781977e-08 6.2043480791196103e-10  -6.7207181989900381e-10 -4.2095209211459894e-08 5.4720833660498076e-10  -6.3867256730388141e-10 -3.8222222836496176e-08 4.4150039514150039e-10  -5.7985308669423289e-10 -3.2790665909362186e-08 3.0740527980850447e-10  -4.7978551990154767e-10 -2.6153290606343442e-08 1.5887221148638060e-10  -3.2055898217665494e-10 -1.8792597740987836e-08 2.0455149237512047e-11  -1.1764751259241527e-10 -1.1350203662176825e-08 -7.4273018262329930e-11  2.4845522840794881e-11 -4.7072660320561505e-09 -9.2475139477100735e-11  0.0000000000000000e+00 0.0000000000000000e+00 0.0000000000000000e+00  0.0000000000000000e+00 0.0000000000000000e+00 0.0000000000000000e+00  7.2858393443178062e-10 -1.6726805159239522e-09 2.0971920376209999e-10  1.4264843904555235e-09 -4.7706583134413438e-09 2.7387468487804307e-10  1.9480989305560696e-09 -8.9190940209086531e-09 3.0031645868509628e-10  2.2779965470510605e-09 -1.3818993242934342e-08 3.3294254699237349e-10  2.4120063390787537e-09 -1.9177974254818073e-08 3.7589722990696351e-10  2.3449057699050044e-09 -2.4711941193696792e-08 4.2151589789989750e-10  2.0704114610637898e-09 -3.0144697579701768e-08 4.5451778409006799e-10  1.5900657174683426e-09 -3.5207743465766484e-08 4.5138514399781533e-10  9.5308130362624150e-10 -3.9607960770425911e-08 3.9268370359344492e-10  2.4135537530214205e-10 -4.2904005070687775e-08 2.9534675387522145e-10  -5.2638223168946512e-10 -4.4562251668984944e-08 2.2334837362763517e-10  -1.3195907087562986e-09 -4.4371166098219638e-08 1.7733253080985428e-10  -2.0726373451910825e-09 -4.2302576847184707e-08 1.3960544535384623e-10  -2.7013771179122388e-09 -3.8458911688398885e-08 1.0160477538431141e-10  -3.1145451678973072e-09 -3.3067948604677312e-08 6.5468571150114738e-11  -3.2178332493251117e-09 -2.6482444570912956e-08 4.2357205732424125e-11  -2.9161947929198906e-09 -1.9174084358595012e-08 5.0260533060450741e-11  -2.1271890932574164e-09 -1.1713697358026465e-08 1.0423654560827805e-10  -9.8571753421792830e-10 -4.8999067144569516e-09 1.6143997347828275e-10  0.0000000000000000e+00 0.0000000000000000e+00 0.0000000000000000e+00  0.0000000000000000e+00 0.0000000000000000e+00 0.0000000000000000e+00  1.5467078560946081e-09 -1.8508387832981262e-09 3.9244499319107430e-10  3.0359299079924497e-09 -4.9295451401866501e-09 4.7919464075346090e-10  4.1533688449021464e-09 -9.0263559576994395e-09 4.4585245271563739e-10  4.8876855027897331e-09 -1.3869635650923304e-08 4.0231600791417539e-10  5.2364204042535039e-09 -1.9170991830035508e-08 3.6847184405644471e-10  5.1991488939254960e-09 -2.4646452618993155e-08 3.4125032388164921e-10  4.7754214610187845e-09 -3.0022084563815692e-08 3.0903161432080265e-10  3.9598559962338491e-09 -3.5050059562368952e-08 2.5034415117408870e-10  2.7779082504808072e-09 -3.9498172317187610e-08 1.3706828915673006e-10  1.3473168678200699e-09 -4.2883218888881554e-08 -1.9093139856499762e-12  -2.6499348327676151e-10 -4.4574465381819787e-08 -8.6694023581023426e-11  -1.9546530671691145e-09 -4.4404385921352947e-08 -1.1951556784592385e-10  -3.5736454899302727e-09 -4.2371129152199890e-08 -1.1827285814736942e-10  -4.9569150907590173e-09 -3.8586629727522677e-08 -9.0780905092724007e-11  -5.9344687206929480e-09 -3.3281723717549880e-08 -3.5857905980967174e-11  -6.3368394643506084e-09 -2.6809589100264224e-08 5.3437397350687061e-11  -5.9986192842000569e-09 -1.9638893278317560e-08 1.8370873786144222e-10  -4.7579638560769630e-09 -1.2320397888385719e-08 3.4468650046306423e-10  -2.4275344333977861e-09 -5.3377513247659618e-09 4.5919752503770130e-10  0.0000000000000000e+00 0.0000000000000000e+00 0.0000000000000000e+00  0.0000000000000000e+00 0.0000000000000000e+00 0.0000000000000000e+00  2.6511079863917760e-09 -2.2384258555374696e-09 5.4163549406684141e-10  5.0284320878431416e-09 -5.2395811899276622e-09 6.5174230287208366e-10  6.7574711702275200e-09 -9.2414905422925328e-09 5.6927433162772228e-10  7.8986717211259924e-09 -1.398683870200725