<?xml version="1.0"?>
<VTKFile type="UnstructuredGrid"  version="0.1"  >
<UnstructuredGrid>
<Piece  NumberOfPoints="1029" NumberOfCells="4320">
<Points>
<DataArray  type="Float64"  NumberOfComponents="3"  format="ascii">0 0 0  0.05 0 0  0.1 0 0  0.15 0 0  0.2 0 0  0.25 0 0  0.3 0 0  0.35 0 0  0.4 0 0  0.45 0 0  0.5 0 0  0.55 0 0  0.6 0 0  0.65 0 0  0.7 0 0  0.75 0 0  0.8 0 0  0.85 0 0  0.9 0 0  0.95 0 0  1 0 0  0 0.03333333333333333 0  0.05 0.03333333333333333 0  0.1 0.03333333333333333 0  0.15 0.03333333333333333 0  0.2 0.03333333333333333 0  0.25 0.03333333333333333 0  0.3 0.03333333333333333 0  0.35 0.03333333333333333 0  0.4 0.03333333333333333 0  0.45 0.03333333333333333 0  0.5 0.03333333333333333 0  0.55 0.03333333333333333 0  0.6 0.03333333333333333 0  0.65 0.03333333333333333 0  0.7 0.03333333333333333 0  0.75 0.03333333333333333 0  0.8 0.03333333333333333 0  0.85 0.03333333333333333 0  0.9 0.03333333333333333 0  0.95 0.03333333333333333 0  1 0.03333333333333333 0  0 0.06666666666666667 0  0.05 0.06666666666666667 0  0.1 0.06666666666666667 0  0.15 0.06666666666666667 0  0.2 0.06666666666666667 0  0.25 0.06666666666666667 0  0.3 0.06666666666666667 0  0.35 0.06666666666666667 0  0.4 0.06666666666666667 0  0.45 0.06666666666666667 0  0.5 0.06666666666666667 0  0.55 0.06666666666666667 0  0.6 0.06666666666666667 0  0.65 0.06666666666666667 0  0.7 0.06666666666666667 0  0.75 0.06666666666666667 0  0.8 0.06666666666666667 0  0.85 0.06666666666666667 0  0.9 0.06666666666666667 0  0.95 0.06666666666666667 0  1 0.06666666666666667 0  0 0.1 0  0.05 0.1 0  0.1 0.1 0  0.15 0.1 0  0.2 0.1 0  0.25 0.1 0  0.3 0.1 0  0.35 0.1 0  0.4 0.1 0  0.45 0.1 0  0.5 0.1 0  0.55 0.1 0  0.6 0.1 0  0.65 0.1 0  0.7 0.1 0  0.75 0.1 0  0.8 0.1 0  0.85 0.1 0  0.9 0.1 0  0.95 0.1 0  1 0.1 0  0 0.1333333333333333 0  0.05 0.1333333333333333 0  0.1 0.1333333333333333 0  0.15 0.1333333333333333 0  0.2 0.1333333333333333 0  0.25 0.1333333333333333 0  0.3 0.1333333333333333 0  0.35 0.1333333333333333 0  0.4 0.1333333333333333 0  0.45 0.1333333333333333 0  0.5 0.1333333333333333 0  0.55 0.1333333333333333 0  0.6 0.1333333333333333 0  0.65 0.1333333333333333 0  0.7 0.1333333333333333 0  0.75 0.1333333333333333 0  0.8 0.1333333333333333 0  0.85 0.1333333333333333 0  0.9 0.1333333333333333 0  0.95 0.1333333333333333 0  1 0.1333333333333333 0  0 0.1666666666666667 0  0.05 0.1666666666666667 0  0.1 0.1666666666666667 0  0.15 0.1666666666666667 0  0.2 0.1666666666666667 0  0.25 0.1666666666666667 0  0.3 0.1666666666666667 0  0.35 0.1666666666666667 0  0.4 0.1666666666666667 0  0.45 0.1666666666666667 0  0.5 0.1666666666666667 0  0.55 0.1666666666666667 0  0.6 0.1666666666666667 0  0.65 0.1666666666666667 0  0.7 0.1666666666666667 0  0.75 0.1666666666666667 0  0.8 0.1666666666666667 0  0.85 0.1666666666666667 0  0.9 0.1666666666666667 0  0.95 0.1666666666666667 0  1 0.1666666666666667 0  0 0.2 0  0.05 0.2 0  0.1 0.2 0  0.15 0.2 0  0.2 0.2 0  0.25 0.2 0  0.3 0.2 0  0.35 0.2 0  0.4 0.2 0  0.45 0.2 0  0.5 0.2 0  0.55 0.2 0  0.6 0.2 0  0.65 0.2 0  0.7 0.2 0  0.75 0.2 0  0.8 0.2 0  0.85 0.2 0  0.9 0.2 0  0.95 0.2 0  1 0.2 0  0 0 0.03333333333333333  0.05 0 0.03333333333333333  0.1 0 0.03333333333333333  0.15 0 0.03333333333333333  0.2 0 0.03333333333333333  0.25 0 0.03333333333333333  0.3 0 0.03333333333333333  0.35 0 0.03333333333333333  0.4 0 0.03333333333333333  0.45 0 0.03333333333333333  0.5 0 0.03333333333333333  0.55 0 0.03333333333333333  0.6 0 0.03333333333333333  0.65 0 0.03333333333333333  0.7 0 0.03333333333333333  0.75 0 0.03333333333333333  0.8 0 0.03333333333333333  0.85 0 0.03333333333333333  0.9 0 0.03333333333333333  0.95 0 0.03333333333333333  1 0 0.03333333333333333  0 0.03333333333333333 0.03333333333333333  0.05 0.03333333333333333 0.03333333333333333  0.1 0.03333333333333333 0.03333333333333333  0.15 0.03333333333333333 0.03333333333333333  0.2 0.03333333333333333 0.03333333333333333  0.25 0.03333333333333333 0.03333333333333333  0.3 0.03333333333333333 0.03333333333333333  0.35 0.03333333333333333 0.03333333333333333  0.4 0.03333333333333333 0.03333333333333333  0.45 0.03333333333333333 0.03333333333333333  0.5 0.03333333333333333 0.03333333333333333  0.55 0.03333333333333333 0.03333333333333333  0.6 0.03333333333333333 0.03333333333333333  0.65 0.03333333333333333 0.03333333333333333  0.7 0.03333333333333333 0.03333333333333333  0.75 0.03333333333333333 0.03333333333333333  0.8 0.03333333333333333 0.03333333333333333  0.85 0.03333333333333333 0.03333333333333333  0.9 0.03333333333333333 0.03333333333333333  0.95 0.03333333333333333 0.03333333333333333  1 0.03333333333333333 0.03333333333333333  0 0.06666666666666667 0.03333333333333333  0.05 0.06666666666666667 0.03333333333333333  0.1 0.06666666666666667 0.03333333333333333  0.15 0.06666666666666667 0.03333333333333333  0.2 0.06666666666666667 0.03333333333333333  0.25 0.06666666666666667 0.03333333333333333  0.3 0.06666666666666667 0.03333333333333333  0.35 0.06666666666666667 0.03333333333333333  0.4 0.06666666666666667 0.03333333333333333  0.45 0.06666666666666667 0.03333333333333333  0.5 0.06666666666666667 0.03333333333333333  0.55 0.06666666666666667 0.03333333333333333  0.6 0.06666666666666667 0.03333333333333333  0.65 0.06666666666666667 0.03333333333333333  0.7 0.06666666666666667 0.03333333333333333  0.75 0.06666666666666667 0.03333333333333333  0.8 0.06666666666666667 0.03333333333333333  0.85 0.06666666666666667 0.03333333333333333  0.9 0.06666666666666667 0.03333333333333333  0.95 0.06666666666666667 0.03333333333333333  1 0.06666666666666667 0.03333333333333333  0 0.1 0.03333333333333333  0.05 0.1 0.03333333333333333  0.1 0.1 0.03333333333333333  0.15 0.1 0.03333333333333333  0.2 0.1 0.03333333333333333  0.25 0.1 0.03333333333333333  0.3 0.1 0.03333333333333333  0.35 0.1 0.03333333333333333  0.4 0.1 0.03333333333333333  0.45 0.1 0.03333333333333333  0.5 0.1 0.03333333333333333  0.55 0.1 0.03333333333333333  0.6 0.1 0.03333333333333333  0.65 0.1 0.03333333333333333  0.7 0.1 0.03333333333333333  0.75 0.1 0.03333333333333333  0.8 0.1 0.03333333333333333  0.85 0.1 0.03333333333333333  0.9 0.1 0.03333333333333333  0.95 0.1 0.03333333333333333  1 0.1 0.03333333333333333  0 0.1333333333333333 0.03333333333333333  0.05 0.1333333333333333 0.03333333333333333  0.1 0.1333333333333333 0.03333333333333333  0.15 0.1333333333333333 0.03333333333333333  0.2 0.1333333333333333 0.03333333333333333  0.25 0.1333333333333333 0.03333333333333333  0.3 0.1333333333333333 0.03333333333333333  0.35 0.1333333333333333 0.03333333333333333  0.4 0.1333333333333333 0.03333333333333333  0.45 0.1333333333333333 0.03333333333333333  0.5 0.1333333333333333 0.03333333333333333  0.55 0.1333333333333333 0.03333333333333333  0.6 0.1333333333333333 0.03333333333333333  0.65 0.1333333333333333 0.03333333333333333  0.7 0.1333333333333333 0.03333333333333333  0.75 0.1333333333333333 0.03333333333333333  0.8 0.1333333333333333 0.03333333333333333  0.85 0.1333333333333333 0.03333333333333333  0.9 0.1333333333333333 0.03333333333333333  0.95 0.1333333333333333 0.03333333333333333  1 0.1333333333333333 0.03333333333333333  0 0.1666666666666667 0.03333333333333333  0.05 0.1666666666666667 0.03333333333333333  0.1 0.1666666666666667 0.03333333333333333  0.15 0.1666666666666667 0.03333333333333333  0.2 0.1666666666666667 0.03333333333333333  0.25 0.1666666666666667 0.03333333333333333  0.3 0.1666666666666667 0.03333333333333333  0.35 0.1666666666666667 0.03333333333333333  0.4 0.1666666666666667 0.03333333333333333  0.45 0.1666666666666667 0.03333333333333333  0.5 0.1666666666666667 0.03333333333333333  0.55 0.1666666666666667 0.03333333333333333  0.6 0.1666666666666667 0.03333333333333333  0.65 0.1666666666666667 0.03333333333333333  0.7 0.1666666666666667 0.03333333333333333  0.75 0.1666666666666667 0.03333333333333333  0.8 0.1666666666666667 0.03333333333333333  0.85 0.1666666666666667 0.03333333333333333  0.9 0.1666666666666667 0.03333333333333333  0.95 0.1666666666666667 0.03333333333333333  1 0.1666666666666667 0.03333333333333333  0 0.2 0.03333333333333333  0.05 0.2 0.03333333333333333  0.1 0.2 0.03333333333333333  0.15 0.2 0.03333333333333333  0.2 0.2 0.03333333333333333  0.25 0.2 0.03333333333333333  0.3 0.2 0.03333333333333333  0.35 0.2 0.03333333333333333  0.4 0.2 0.03333333333333333  0.45 0.2 0.03333333333333333  0.5 0.2 0.03333333333333333  0.55 0.2 0.03333333333333333  0.6 0.2 0.03333333333333333  0.65 0.2 0.03333333333333333  0.7 0.2 0.03333333333333333  0.75 0.2 0.03333333333333333  0.8 0.2 0.03333333333333333  0.85 0.2 0.03333333333333333  0.9 0.2 0.03333333333333333  0.95 0.2 0.03333333333333333  1 0.2 0.03333333333333333  0 0 0.06666666666666667  0.05 0 0.06666666666666667  0.1 0 0.06666666666666667  0.15 0 0.06666666666666667  0.2 0 0.06666666666666667  0.25 0 0.06666666666666667  0.3 0 0.06666666666666667  0.35 0 0.06666666666666667  0.4 0 0.06666666666666667  0.45 0 0.06666666666666667  0.5 0 0.06666666666666667  0.55 0 0.06666666666666667  0.6 0 0.06666666666666667  0.65 0 0.06666666666666667  0.7 0 0.06666666666666667  0.75 0 0.06666666666666667  0.8 0 0.06666666666666667  0.85 0 0.06666666666666667  0.9 0 0.06666666666666667  0.95 0 0.06666666666666667  1 0 0.06666666666666667  0 0.03333333333333333 0.06666666666666667  0.05 0.03333333333333333 0.06666666666666667  0.1 0.03333333333333333 0.06666666666666667  0.15 0.03333333333333333 0.06666666666666667  0.2 0.03333333333333333 0.06666666666666667  0.25 0.03333333333333333 0.06666666666666667  0.3 0.03333333333333333 0.06666666666666667  0.35 0.03333333333333333 0.06666666666666667  0.4 0.03333333333333333 0.06666666666666667  0.45 0.03333333333333333 0.06666666666666667  0.5 0.03333333333333333 0.06666666666666667  0.55 0.03333333333333333 0.06666666666666667  0.6 0.03333333333333333 0.06666666666666667  0.65 0.03333333333333333 0.06666666666666667  0.7 0.03333333333333333 0.06666666666666667  0.75 0.03333333333333333 0.0666666666666666
[...]
<PointData  Vectors="f_11"> 
<DataArray  type="Float64"  Name="f_11"  NumberOfComponents="3" format="ascii">0.0000000000000000e+00 0.0000000000000000e+00 0.0000000000000000e+00  -2.8775360246536549e-09 -2.3014528433212323e-09 -8.0342154419942840e-10  -4.8954293771967602e-09 -5.4453183019356405e-09 -6.8239618390244414e-10  -6.3491839364926322e-09 -9.5309274788879332e-09 -3.3027596104304116e-10  -7.2346503887100064e-09 -1.4260335772895721e-08 1.0446255501379572e-10  -7.5260800966635436e-09 -1.9309191550318122e-08 5.6414696748127154e-10  -7.1974679245379664e-09 -2.4340011738255112e-08 1.0135706260332210e-09  -6.2236671187339640e-09 -2.8986082214951712e-08 1.4179106189608306e-09  -4.5995200020181650e-09 -3.2835495505321994e-08 1.7359087187149327e-09  -2.3916201633367096e-09 -3.5437782460757124e-08 1.9195893990479956e-09  1.6295882554022298e-10 -3.6313008900700834e-08 1.9334772941658188e-09  2.6294802668212517e-09 -3.5171336083114392e-08 1.8007264099888709e-09  4.6785870389307790e-09 -3.2373011735232276e-08 1.5273216794726952e-09  6.1672902294205460e-09 -2.8423658812174200e-08 1.1506684071996814e-09  7.0531669070011854e-09 -2.3760876346014253e-08 7.1864625686463918e-10  7.3278516880130431e-09 -1.8756755914326018e-08 2.6788711664897298e-10  6.9915787930596151e-09 -1.3752283515622321e-08 -1.7419716274116105e-10  6.0487425911054352e-09 -9.0825498696678873e-09 -5.7566324289612819e-10  4.5131246115895486e-09 -5.0883018076320779e-09 -8.7411218461673435e-10  2.4112911892205953e-09 -2.1011671908264703e-09 -9.1822063201907909e-10  0.0000000000000000e+00 0.0000000000000000e+00 0.0000000000000000e+00  0.0000000000000000e+00 0.0000000000000000e+00 0.0000000000000000e+00  -1.5713107633993958e-09 -1.8788751358544928e-09 -6.3421253873986992e-10  -2.8647708121966413e-09 -5.1085774884795452e-09 -4.9462808752748110e-10  -3.8253278188169111e-09 -9.2927260141575018e-09 -2.1132056952161729e-10  -4.4264225955695653e-09 -1.4124505396112506e-08 1.2880225233091998e-10  -4.6500406673675966e-09 -1.9279441554090164e-08 4.8527184320322833e-10  -4.4846043102159599e-09 -2.4422717354148501e-08 8.2965239758245792e-10  -3.9176414700090571e-09 -2.9191024444057344e-08 1.1327984263006412e-09  -2.9394914186604896e-09 -3.3168478570116929e-08 1.3642385715584590e-09  -1.5804131698207359e-09 -3.5884388008685307e-08 1.4955449387744741e-09  6.5756143052619808e-12 -3.6809850464393935e-08 1.5148094880038677e-09  1.5338916011613021e-09 -3.5616945506426321e-08 1.4506457337643296e-09  2.8037245485138341e-09 -3.2720378011677454e-08 1.2761194027748470e-09  3.7326846346879834e-09 -2.8661699648186198e-08 1.0064464847594790e-09  4.2898113066351309e-09 -2.3889297198660353e-08 6.8018430491919962e-10  4.4625327141057711e-09 -1.8776732160034194e-08 3.3040104883957085e-10  4.2467770277351922e-09 -1.3664295927845595e-08 -1.8256354170892311e-11  3.6459620727392400e-09 -8.8874808346400822e-09 -3.4062309171857171e-10  2.6773048356225766e-09 -4.7941072114822000e-09 -5.9033698483630092e-10  1.3919666048999064e-09 -1.7428634738879016e-09 -6.4186933000107408e-10  0.0000000000000000e+00 0.0000000000000000e+00 0.0000000000000000e+00  0.0000000000000000e+00 0.0000000000000000e+00 0.0000000000000000e+00  -6.8679021387274503e-10 -1.6780561424510237e-09 -3.1040681393363463e-10  -1.2775679252883669e-09 -4.8824661472989178e-09 -2.2406521031149068e-10  -1.7583477379212239e-09 -9.1197273279811633e-09 -3.0721056709944240e-11  -2.0784114164747632e-09 -1.4012721470235529e-08 1.9630586385123044e-10  -2.2285939535825272e-09 -1.9230207045153031e-08 4.3081603432750034e-10  -2.2103676555287207e-09 -2.4442653748360257e-08 6.4804603754417871e-10  -2.0145020135756616e-09 -2.9300325611519362e-08 8.1856369875948525e-10  -1.5984872924562945e-09 -3.3395311637726175e-08 9.1881670549212939e-10  -9.1451065533307544e-10 -3.6237339646456724e-08 9.4686267730971492e-10  -4.8832753441880174e-11 -3.7215593841872346e-08 9.3851446806329614e-10  7.3994225204416319e-10 -3.5946076964623091e-08 9.6631932781656758e-10  1.3373230634304095e-09 -3.2955859788095686e-08 9.2850022620388075e-10  1.7467531584358846e-09 -2.8819184862401762e-08 7.9639790539511247e-10  1.9824657916389953e-09 -2.3979346209574808e-08 5.9954002285710817e-10  2.0470041926266445e-09 -1.8803334532761695e-08 3.7168401840260083e-10  1.9395360851177040e-09 -1.3628145881568705e-08 1.3854581459521650e-10  1.6619180061824440e-09 -8.7879336797175473e-09 -7.8121919228110848e-11  1.2198150821331289e-09 -4.6373211807041860e-09 -2.4959765839512968e-10  6.3549651067383590e-10 -1.5680938858089201e-09 -3.0788163713888136e-10  0.0000000000000000e+00 0.0000000000000000e+00 0.0000000000000000e+00  0.0000000000000000e+00 0.0000000000000000e+00 0.0000000000000000e+00  5.6990963122440155e-11 -1.6135244956778217e-09 2.9952790023984366e-11  8.9177463569964379e-11 -4.7854549879990707e-09 8.3932902013492928e-11  8.2894856808322416e-11 -9.0275103140841157e-09 1.7335634689607704e-10  4.9138025609087195e-11 -1.3937894128674492e-08 2.8014282702346539e-10  -1.4976347392381823e-11 -1.9171972720805966e-08 3.8915430407368845e-10  -1.2174206582562989e-10 -2.4405246256486008e-08 4.7792397611847802e-10  -2.7049999216137967e-10 -2.9313854560761255e-08 5.1120129032195173e-10  -3.8756020887617009e-10 -3.3521742008108016e-08 4.6268583313905521e-10  -3.1601470792059064e-10 -3.6516688755799083e-08 3.6160572071570284e-10  -7.5517861320512235e-11 -3.7546282910016631e-08 3.1208715799287687e-10  5.6931693117215518e-11 -3.6157272052744806e-08 4.5298821759146330e-10  3.4906891424957171e-11 -3.3069808447771357e-08 5.6475217264629759e-10  -4.5724087440587167e-11 -2.8884703228372115e-08 5.7475740924045456e-10  -1.1776334015058159e-10 -2.4020667248753016e-08 5.1002977071350310e-10  -1.5809159427644210e-10 -1.8828292223252545e-08 4.0719993209887283e-10  -1.6239875155039671e-10 -1.3638389891551748e-08 2.9346882637028068e-10  -1.2948209914738782e-10 -8.7797729198812896e-09 1.8791651998089238e-10  -6.8108387068146012e-11 -4.6007871930688817e-09 1.0158848797129236e-10  -1.4610651118864270e-11 -1.5113475800972329e-09 3.3819265534206011e-11  0.0000000000000000e+00 0.0000000000000000e+00 0.0000000000000000e+00  0.0000000000000000e+00 0.0000000000000000e+00 0.0000000000000000e+00  8.0777347035672551e-10 -1.6513535278511385e-09 3.6962751016530498e-10  1.4515582620811432e-09 -4.8047582748989906e-09 4.0124046683269863e-10  1.9216085253367108e-09 -9.0207339241235229e-09 3.8652726944973986e-10  2.1850044302085181e-09 -1.3906048504670579e-08 3.7165734295362439e-10  2.2224147043489887e-09 -1.9112219629210384e-08 3.5836418514817681e-10  2.0178279674029483e-09 -2.4315577250451627e-08 3.2903708348368304e-10  1.5587197050351196e-09 -2.9217454329306996e-08 2.4337414123924797e-10  9.0019630424484349e-10 -3.3513669400224307e-08 5.3390159745104124e-11  3.1127294499993785e-10 -3.6686295730189735e-08 -1.8790654462717263e-10  -1.1977605481598290e-10 -3.7758705154539318e-08 -2.7987960804865642e-10  -6.7481921877822042e-10 -3.6220008264267747e-08 -1.4285853517932496e-11  -1.3193447048988915e-09 -3.3052988338964812e-08 2.3436620901680802e-10  -1.8775078919340008e-09 -2.8858482094298167e-08 3.6991262399756156e-10  -2.2443196610120990e-09 -2.4015016150510673e-08 4.2618392840334807e-10  -2.3822908800884763e-09 -1.8851797934504472e-08 4.4182639943815215e-10  -2.2838428507579236e-09 -1.3692672782872197e-08 4.4298449749405390e-10  -1.9511188061513491e-09 -8.8635627952949739e-09 4.4388583286821459e-10  -1.3875567156269490e-09 -4.6883592552993449e-09 4.4323057586211944e-10  -6.6947298446683053e-10 -1.5530162282857861e-09 3.7827102435423250e-10  0.0000000000000000e+00 0.0000000000000000e+00 0.0000000000000000e+00  0.0000000000000000e+00 0.0000000000000000e+00 0.0000000000000000e+00  1.7061167686247078e-09 -1.8105147118972583e-09 7.0617083822104084e-10  3.0232770134403509e-09 -4.9410431058219832e-09 7.0782039794092418e-10  3.9923452905269667e-09 -9.1000953873524045e-09 5.9385901819822550e-10  4.5636418674467590e-09 -1.3919627812781754e-08 4.6379785521535854e-10  4.7116939316129813e-09 -1.9056299267658168e-08 3.3746880086559411e-10  4.4266323079092826e-09 -2.4185797130909912e-08 2.0823586338613752e-10  3.7054516360578865e-09 -2.9008313495108494e-08 5.1474593965192751e-11  2.5364232014143353e-09 -3.3287281536564521e-08 -1.9304910708346139e-10  1.1032396189263477e-09 -3.6619228683974855e-08 -5.1959790286158035e-10  -2.5751769875640276e-10 -3.7730740995375255e-08 -6.1803607715021150e-10  -1.6451398942217992e-09 -3.6074831218229019e-08 -3.0771226213667142e-10  -2.9494880643107566e-09 -3.2894215997709761e-08 -6.7065824851607281e-12  -3.9792417905345050e-09 -2.8745800643143323e-08 2.0544029358681043e-10  -4.6275310681559928e-09 -2.3969628241554658e-08 3.5693921579429127e-10  -4.8528715406986353e-09 -1.8878647534771052e-08 4.7627533244919733e-10  -4.6453789953183294e-09 -1.3791857949676128e-08 5.8158181295238180e-10  -4.0115772993928022e-09 -9.0351340745129863e-09 6.7813721780464375e-10  -2.9665321592926417e-09 -4.9337522889416947e-09 7.4764002191159589e-10  -1.4797180921169778e-09 -1.7420271464339716e-09 7.1358414306285911e-10  0.0000000000000000e+00 0.0000000000000000e+00 0.0000000000000000e+00  0.0000000000000000e+00 0.0000000000000000e+00 0.0000000000000000e+00  2.9992852449776952e-09 -2.1492502079889003e-09 1.0378530945932578e-09  5.0824908005468017e-09 -5.2060557070658984e-09 9.7116679486825345e-10  6.5763029102709315e-09 -9.2626555202676747e-09 7.7479173342662497e-10  7.4554990350585430e-09 -1.3971606306233009e-08 5.5137288783128224e-10  7.7040729182946832e-09 -1.8997028079591286e-08 3.3379310911294965e-10  7.3254558983490608e-09 -2.4016185920591499e-08 1.2926116012048891e-10  6.3359969742594077e-09 -2.8724608821597661e-08 -5.6954793436012777e-11  4.7364659727144365e-09 -3.2845927678548639e-08 -1.9861474872329800e-10  2.3298837534328316e-09 -3.6131755490109787e-08 -2.6864987729342536e-10  -6.2977558317443684e-10 -3.7411294327436313e-08 -2.5932939675098638e-10  -3.0861875438924124e-09 -3.5725798400613940e-08 -2.7890306812729899e-10  -5.0923316444263570e-09 -3.2609809726790924e-08 -1.1931503202840736e-10  -6.5916603607748932e-09 -2.8562912428415002e-08 9.2145847464084616e-11  -7.5137926418901719e-09 -2.3898786469157119e-08 3.0018644441816758e-10  -7.8167119676209585e-09 -1.8922440016757399e-08 4.9749854018353359e-10  -7.4852802196967756e-09 -1.3949285720967071e-08 6.8528999753353334e-10  -6.5275649752488148e-09 -9.3034787903206743e-09 8.5636822741472360e-10  -4.9766828772964377e-09 -5.3134808236410018e-09 9.7238852579165479e-10  -2.8874208366122218e-09 -2.3067320834304649e-09 9.1140282343313923e-10  0.0000000000000000e+00 0.0000000000000000e+00 0.0000000000000000e+00  0.0000000000000000e+00 0.0000000000000000e+00 0.0000000000000000e+00  -2.8277403719822302e-09 -2.4897628552576493e-09 -4.4669250551746985e-10  -4.9726505383677895e-09 -5.6167239830524428e-09 -4.0437087348619521e-10  -6.5102701515269565e-09 -9.6404680929165622e-09 -1.4615410347088847e-10  -7.4443758792291493e-09 -1.4285383891098665e-08 1.8732702756124927e-10  -7.7613411255818562e-09 -1.9242039773900037e-08 5.4157584061302322e-10  -7.4411099268825987e-09 -2.4181191918591675e-08 8.8439343736705692e-10  -6.4611460847490198e-09 -2.8744426398810606e-08 1.1853201324718284e-09  -4.8162131765636059e-09 -3.2531074874940233e-08 1.4118844370172866e-09  -2.5674069305530059e-09 -3.5104494021440601e-08 1.5339368049023591e-09  6.0549994954291399e-11 -3.5994712110569193e-08 1.5362975811098974e-09  2.6278317794739289e-09 -3.4888961167711762e-08 1.4438577103410000e-09  4.7710635723115118e-09 -3.2157358093719123e-08 1.2481304054580256e-09  6.3302884020365902e-09 -2.8294249223906534e-08 9.6754641638604998e-10  7.2626002292591842e-09 -2.3723037276047285e-08 6.3898141377155903e-10  7.5637284460571768e-09 -1.8808145675293290e-08 2.9416262122707501e-10  7.2353696129610015e-09 -1.3885534212489724e-08 -4.2324400905405580e-11  6.2772170511418602e-09 -9.2819229549594303e-09 -3.4287924583874393e-10  4.6926594730589922e-09 -5.3186413576262696e-09 -5.5606037683432146e-10  2.5087276687967881e-09 -2.2765301858758487e-09 -5.6196151837701347e-10  0.0000000000000000e+00 0.0000000000000000e+00 0.0000000000000000e+00  0.0000000000000000e+00 0.0000000000000000e+00 0.0000000000000000e+00  -1.4538210037554146e-09 -1.9946702550565834e-09 -3.2842303676699212e-10  -2.9296706268297807e-09 -5.2631187160177697e-09 -2.8227813148292812e-10  -3.9696280075378329e-09 -9.3955340954488231e-09 -6.8396692253495309e-11  -4.6065235057820188e-09 -1.4145720843174121e-08 2.0001594416247899e-10  -4.8407336643237776e-09 -1.9209441083157048e-08 4.8250411211040642e-10  -4.6668692281784611e-09 -2.4260902680654385e-08 7.5357895691479862e-10  -4.0764203161236787e-09 -2.8945105026285897e-08 9.8767793018354282e-10  -3.0654599013906658e-09 -3.2858413479466730e-08 1.1592304762468868e-09  -1.6676519390594453e-09 -3.5546574727934441e-08 1.2497079554813787e-09  -3.0627079995448577e-11 -3.6493619265476732e-08 1.2570306106928822e-09  1.5613000032642156e-09 -3.5341371074808733e-08 1.2093579880961863e-09  2.8978044992552788e-09 -3.2512560288421766e-08 1.0795369792342127e-09  3.8791897306485964e-09 -2.8539156805535144e-08 8.7213404488668959e-10  4.4688976383130495e-09 -2.3857181246960213e-08 6.1683674663281109e-10  4.6556190150507529e-09 -1.8833166957743076e-08 3.4180550754840416e-10  4.4361598695121340e-09 -1.3802193302676769e-08 6.8793750323145301e-11  3.8105196442147510e-09 -9.0905431875924977e-09 -1.8029340112658420e-10  2.7887456641126729e-09 -5.0255206941192596e-09 -3.6691842858809259e-10  1.4282531551857806e-09 -1.9225065595850380e-09 -3.9518347028537594e-10  0.0000000000000000e+00 0.0000000000000000e+00 0.0000000000000000e+00  0.0000000000000000e+00 0.0000000000000000e+00 0.0000000000000000e+00  -6.2200029276554042e-10 -1.8119997850101196e-09 -1.6128646076368524e-10  -1.3281548253338686e-09 -5.0520466576488269e-09 -1.2367961709302495e-10  -1.8663566742632732e-09 -9.2381395020865610e-09 3.6813362298075285e-11  -2.2104338737672111e-09 -1.4047526735215305e-08 2.3117542087592602e-10  -2.3637529099478985e-09 -1.9171092014738310e-08 4.3325898500910414e-10  -2.3308312405516828e-09 -2.4288200357953284e-08 6.2196183022513000e-10  -2.1068993319951178e-09 -2.9056284196558892e-08 7.7168576575302325e-10  -1.6628591143920649e-09 -3.3080920247900422e-08 8.5877874429057082e-10  -9.6114549475561200e-10 -3.5894184954798159e-08 8.8026212547470052e-10  -7.4637505392432733e-11 -3.6899875533382910e-08 8.6772637926464302e-10  7.5009119671745100e-10 -3.5660844972090553e-08 8.8789177721126292e-10  1.3941850895618751e-09 -3.2734819645503004e-08 8.5707722474458363e-10  1.8458298813594270e-09 -2.8684567426956840e-08 7.4543509063496680e-10  2.1096425087333892e-09 -2.3937712300937657e-08 5.7726057506707608e-10  2.1865436839301841e-09 -1.8853525593211993e-08 3.8225490004030128e-10  2.0762618403034495e-09 -1.3763840134589274e-08 1.8323040502788270e-10  1.7795635532991847e-09 -8.9937527791525901e-09 -6.9632486085734490e-13  1.2995734005542544e-09 -4.8764616991576101e-09 -1.4427195333827160e-10  6.6274288345486018e-10 -1.7597478134097074e-09 -1.9168349076903428e-10  0.0000000000000000e+00 0.0000000000000000e+00 0.0000000000000000e+00  0.0000000000000000e+00 0.0000000000000000e+00 0.0000000000000000e+00  5.1301593831665129e-11 -1.7622552096035909e-09 2.5722843201700847e-11  4.4791408238332726e-11 -4.9688259994042460e-09 7.2995172966102997e-11  1.4865924559547442e-11 -9.1576716683882982e-09 1.6596604428657426e-10  -2.9708335349182639e-11 -1.3983819838838337e-08 2.7816552496703965e-10  -9.1635671839640533e-11 -1.9124780888019988e-08 3.9479514630872572e-10  -1.8128370967237778e-10 -2.4265368620467877e-08 4.9710682701299921e-10  -3.0035573347763799e-10 -2.9087968072646431e-08 5.5571193158682891e-10  -3.9689732284579604e-10 -3.3233333982466866e-08 5.4070412836955225e-10  -3.3366963141810433e-10 -3.6226756355022331e-08 4.6415817688584763e-10  -9.7475077147068064e-11 -3.7312560266769000e-08 4.1256691966820197e-10  4.4095367047895957e-11 -3.5915701218844742e-08 5.2110796118904327e-10  4.9230375649217645e-11 -3.2864074170129876e-08 6.0805178157150456e-10  6.6419179482447707e-13 -2.8752567701903603e-08 6.0193314355113562e-10  -4.7254112735195977e-11 -2.3976279099826587e-08 5.2665486717139605e-10  -7.5493986499429142e-11 -1.8874025917791203e-08 4.1630843927079181e-10  -7.9209230414257904e-11 -1.3769673649334123e-08 2.9622103161678647e-10  -5.6179817686205498e-11 -8.9830787742295292e-09 1.8370685334724584e-10  -1.3590875126243114e-11 -4.8419434454896370e-09 9.0231167474575376e-11  1.5595458502578266e-11 -1.7089466575792483e-09 2.3638541580876030e-11  0.0000000000000000e+00 0.0000000000000000e+00 0.0000000000000000e+00  0.0000000000000000e+00 0.0000000000000000e+00 0.0000000000000000e+00  7.2491365489507026e-10 -1.8078827384846711e-09 2.1370762476389595e-10  1.4052288079896266e-09 -4.9963524109523523e-09 2.7928068830380573e-10  1.8883267636765480e-09 -9.1582875893388735e-09 3.0398831207145141e-10  2.1552606531215497e-09 -1.3960340018534437e-08 3.3194797540696676e-10  2.1988933666332719e-09 -1.9076982218528591e-08 3.6432749769906778e-10  2.0098314277370930e-09 -2.4196268513676920e-08 3.8559903061742318e-10  1.5767352288209962e-09 -2.9028875677025201e-08 3.6334751409683989e-10  9.3232765558540774e-10 -3.3294139291394708e-08 2.5082230179408524e-10  3.1117790665476011e-10 -3.6552068162152835e-08 5.8863339540333207e-11  -1.2507751432284083e-10 -3.7744945326648122e-08 -4.1438409419876233e-11  -6.9309706232494264e-10 -3.6094588094398911e-08 1.7423685626960691e-10  -1.3344630348899990e-09 -3.2894207334857627e-08 3.7848200268953618e-10  -1.8748497530252591e-09 -2.8742547758238105e-08 4.6880584277717809e-10  -2.2241958971968484e-09 -2.3973380052825793e-08 4.7924655681449102e-10  -2.3518690681457285e-09 -1.8894121845852460e-08 4.4917373609849720e-10  -2.2500704884629419e-09 -1.3817396943188059e-08 4.0518939206661728e-10  -1.9170417310126116e-09 -9.0583088916775191e-09 3.6204380483363228e-10  -1.3546573197201162e-09 -4.9239776540321931e-09 3.1915673335641662e-10  -6.3809486957069243e-10 -1.7522443508796434e-09 2.3921718852253907e-10  0.0000000000000000e+00 0.0000000000000000e+00 0.0000000000000000e+00  0.0000000000000000e+00 0.0000000000000000e+00 0.0000000000000000e+00  1.5272447501909065e-09 -1.9752022513686777e-09 3.9188246587080836e-10  2.9585687033504976e-09 -5.1401256700053238e-09 4.7523913567287770e-10  3.9754138909318775e-09 -9.2444277273255531e-09 4.3626097858468009e-10  4.5644595737172754e-09 -1.3982425065370387e-08 3.8535027061272869e-10  4.7232279813401266e-09 -1.9033425312209504e-08 3.4066200114733390e-10  4.4519214260241630e-09 -2.4087417351246302e-08 2.9422483543521857e-10  3.7476728709596729e-09 -2.8865165889659732e-08 2.2252019549186743e-10  2.5833830986521894e-09 -3.3177184637955092e-08 7.2856409900459298e-11  1.1114212916589236e-09 -3.6785182926545750e-08 -1.9739943382955386e-10  -2.0783391147772887e-10 -3.8118146650939491e-08 -3.1401638506637395e-10  -1.6289530506870082e-09 -3.6121896137941033e-08 -3.2826019030578871e-11  -2.9648121863130685e-09 -3.2795167270094753e-08 2.2498102017553789e-10  -3.9966738997990683e-09 -2.8647939583327778e-08 3.7083311528071974e-10  -4.6374293185513342e-09 -2.3929485433856289e-08 4.4510035110917936e-10  -4.8572688576351920e-09 -1.8915053057416768e-08 4.8290608081861480e-10  -4.6473694503769864e-09 -1.3906970800028355e-08 5.0619541088030938e-10  -4.0080510603944111e-09 -9.2179966287456851e-09 5.2395690186422270e-10  -2.9443741604971564e-09 -5.1515986591323931e-09 5.2426349583965715e-10  -1.4556111527201566e-09 -1.9362283520386676e-09 4.4062647032665311e-10  0.0000000000000000e+00 0.0000000000000000e+00 0.0000000000000000e+00  0.0000000000000000e+00 0.0000000000000000e+00 0.0000000000000000e+00  2.6480466998440065e-09 -2.3472486280255443e-09 5.3848213979652919e-10  4.9366844732249264e-09 -5.4246189483667566e-09 6.4116622075530470e-10  6.5047414114512713e-09 -9.4234354632090024e-09 5.4988100962255399e-10  7.4181109574633922e-09 -1.4052593712574652e-08 4.332042703526003