<?xml version="1.0"?>
<VTKFile type="UnstructuredGrid"  version="0.1"  >
<UnstructuredGrid>
<Piece  NumberOfPoints="2601" NumberOfCells="5000">
<Points>
<DataArray  type="Float64"  NumberOfComponents="3"  format="ascii">0 0 0  0.02 0 0  0.04 0 0  0.06 0 0  0.08 0 0  0.1 0 0  0.12 0 0  0.14 0 0  0.16 0 0  0.18 0 0  0.2 0 0  0.22 0 0  0.24 0 0  0.26 0 0  0.28 0 0  0.3 0 0  0.32 0 0  0.34 0 0  0.36 0 0  0.38 0 0  0.4 0 0  0.42 0 0  0.44 0 0  0.46 0 0  0.48 0 0  0.5 0 0  0.52 0 0  0.54 0 0  0.5600000000000001 0 0  0.58 0 0  0.6 0 0  0.62 0 0  0.64 0 0  0.66 0 0  0.68 0 0  0.7 0 0  0.72 0 0  0.74 0 0  0.76 0 0  0.78 0 0  0.8 0 0  0.82 0 0  0.84 0 0  0.86 0 0  0.88 0 0  0.9 0 0  0.92 0 0  0.9399999999999999 0 0  0.96 0 0  0.98 0 0  1 0 0  0 0.02 0  0.02 0.02 0  0.04 0.02 0  0.06 0.02 0  0.08 0.02 0  0.1 0.02 0  0.12 0.02 0  0.14 0.02 0  0.16 0.02 0  0.18 0.02 0  0.2 0.02 0  0.22 0.02 0  0.24 0.02 0  0.26 0.02 0  0.28 0.02 0  0.3 0.02 0  0.32 0.02 0  0.34 0.02 0  0.36 0.02 0  0.38 0.02 0  0.4 0.02 0  0.42 0.02 0  0.44 0.02 0  0.46 0.02 0  0.48 0.02 0  0.5 0.02 0  0.52 0.02 0  0.54 0.02 0  0.5600000000000001 0.02 0  0.58 0.02 0  0.6 0.02 0  0.62 0.02 0  0.64 0.02 0  0.66 0.02 0  0.68 0.02 0  0.7 0.02 0  0.72 0.02 0  0.74 0.02 0  0.76 0.02 0  0.78 0.02 0  0.8 0.02 0  0.82 0.02 0  0.84 0.02 0  0.86 0.02 0  0.88 0.02 0  0.9 0.02 0  0.92 0.02 0  0.9399999999999999 0.02 0  0.96 0.02 0  0.98 0.02 0  1 0.02 0  0 0.04 0  0.02 0.04 0  0.04 0.04 0  0.06 0.04 0  0.08 0.04 0  0.1 0.04 0  0.12 0.04 0  0.14 0.04 0  0.16 0.04 0  0.18 0.04 0  0.2 0.04 0  0.22 0.04 0  0.24 0.04 0  0.26 0.04 0  0.28 0.04 0  0.3 0.04 0  0.32 0.04 0  0.34 0.04 0  0.36 0.04 0  0.38 0.04 0  0.4 0.04 0  0.42 0.04 0  0.44 0.04 0  0.46 0.04 0  0.48 0.04 0  0.5 0.04 0  0.52 0.04 0  0.54 0.04 0  0.5600000000000001 0.04 0  0.58 0.04 0  0.6 0.04 0  0.62 0.04 0  0.64 0.04 0  0.66 0.04 0  0.68 0.04 0  0.7 0.04 0  0.72 0.04 0  0.74 0.04 0  0.76 0.04 0  0.78 0.04 0  0.8 0.04 0  0.82 0.04 0  0.84 0.04 0  0.86 0.04 0  0.88 0.04 0  0.9 0.04 0  0.92 0.04 0  0.9399999999999999 0.04 0  0.96 0.04 0  0.98 0.04 0  1 0.04 0  0 0.06 0  0.02 0.06 0  0.04 0.06 0  0.06 0.06 0  0.08 0.06 0  0.1 0.06 0  0.12 0.06 0  0.14 0.06 0  0.16 0.06 0  0.18 0.06 0  0.2 0.06 0  0.22 0.06 0  0.24 0.06 0  0.26 0.06 0  0.28 0.06 0  0.3 0.06 0  0.32 0.06 0  0.34 0.06 0  0.36 0.06 0  0.38 0.06 0  0.4 0.06 0  0.42 0.06 0  0.44 0.06 0  0.46 0.06 0  0.48 0.06 0  0.5 0.06 0  0.52 0.06 0  0.54 0.06 0  0.5600000000000001 0.06 0  0.58 0.06 0  0.6 0.06 0  0.62 0.06 0  0.64 0.06 0  0.66 0.06 0  0.68 0.06 0  0.7 0.06 0  0.72 0.06 0  0.74 0.06 0  0.76 0.06 0  0.78 0.06 0  0.8 0.06 0  0.82 0.06 0  0.84 0.06 0  0.86 0.06 0  0.88 0.06 0  0.9 0.06 0  0.92 0.06 0  0.9399999999999999 0.06 0  0.96 0.06 0  0.98 0.06 0  1 0.06 0  0 0.08 0  0.02 0.08 0  0.04 0.08 0  0.06 0.08 0  0.08 0.08 0  0.1 0.08 0  0.12 0.08 0  0.14 0.08 0  0.16 0.08 0  0.18 0.08 0  0.2 0.08 0  0.22 0.08 0  0.24 0.08 0  0.26 0.08 0  0.28 0.08 0  0.3 0.08 0  0.32 0.08 0  0.34 0.08 0  0.36 0.08 0  0.38 0.08 0  0.4 0.08 0  0.42 0.08 0  0.44 0.08 0  0.46 0.08 0  0.48 0.08 0  0.5 0.08 0  0.52 0.08 0  0.54 0.08 0  0.5600000000000001 0.08 0  0.58 0.08 0  0.6 0.08 0  0.62 0.08 0  0.64 0.08 0  0.66 0.08 0  0.68 0.08 0  0.7 0.08 0  0.72 0.08 0  0.74 0.08 0  0.76 0.08 0  0.78 0.08 0  0.8 0.08 0  0.82 0.08 0  0.84 0.08 0  0.86 0.08 0  0.88 0.08 0  0.9 0.08 0  0.92 0.08 0  0.9399999999999999 0.08 0  0.96 0.08 0  0.98 0.08 0  1 0.08 0  0 0.1 0  0.02 0.1 0  0.04 0.1 0  0.06 0.1 0  0.08 0.1 0  0.1 0.1 0  0.12 0.1 0  0.14 0.1 0  0.16 0.1 0  0.18 0.1 0  0.2 0.1 0  0.22 0.1 0  0.24 0.1 0  0.26 0.1 0  0.28 0.1 0  0.3 0.1 0  0.32 0.1 0  0.34 0.1 0  0.36 0.1 0  0.38 0.1 0  0.4 0.1 0  0.42 0.1 0  0.44 0.1 0  0.46 0.1 0  0.48 0.1 0  0.5 0.1 0  0.52 0.1 0  0.54 0.1 0  0.5600000000000001 0.1 0  0.58 0.1 0  0.6 0.1 0  0.62 0.1 0  0.64 0.1 0  0.66 0.1 0  0.68 0.1 0  0.7 0.1 0  0.72 0.1 0  0.74 0.1 0  0.76 0.1 0  0.78 0.1 0  0.8 0.1 0  0.82 0.1 0  0.84 0.1 0  0.86 0.1 0  0.88 0.1 0  0.9 0.1 0  0.92 0.1 0  0.9399999999999999 0.1 0  0.96 0.1 0  0.98 0.1 0  1 0.1 0  0 0.12 0  0.02 0.12 0  0.04 0.12 0  0.06 0.12 0  0.08 0.12 0  0.1 0.12 0  0.12 0.12 0  0.14 0.12 0  0.16 0.12 0  0.18 0.12 0  0.2 0.12 0  0.22 0.12 0  0.24 0.12 0  0.26 0.12 0  0.28 0.12 0  0.3 0.12 0  0.32 0.12 0  0.34 0.12 0  0.36 0.12 0  0.38 0.12 0  0.4 0.12 0  0.42 0.12 0  0.44 0.12 0  0.46 0.12 0  0.48 0.12 0  0.5 0.12 0  0.52 0.12 0  0.54 0.12 0  0.5600000000000001 0.12 0  0.58 0.12 0  0.6 0.12 0  0.62 0.12 0  0.64 0.12 0  0.66 0.12 0  0.68 0.12 0  0.7 0.12 0  0.72 0.12 0  0.74 0.12 0  0.76 0.12 0  0.78 0.12 0  0.8 0.12 0  0.82 0.12 0  0.84 0.12 0  0.86 0.12 0  0.88 0.12 0  0.9 0.12 0  0.92 0.12 0  0.9399999999999999 0.12 0  0.96 0.12 0  0.98 0.12 0  1 0.12 0  0 0.14 0  0.02 0.14 0  0.04 0.14 0  0.06 0.14 0  0.08 0.14 0  0.1 0.14 0  0.12 0.14 0  0.14 0.14 0  0.16 0.14 0  0.18 0.14 0  0.2 0.14 0  0.22 0.14 0  0.24 0.14 0  0.26 0.14 0  0.28 0.14 0  0.3 0.14 0  0.32 0.14 0  0.34 0.14 0  0.36 0.14 0  0.38 0.14 0  0.4 0.14 0  0.42 0.14 0  0.44 0.14 0  0.46 0.14 0  0.48 0.14 0  0.5 0.14 0  0.52 0.14 0  0.54 0.14 0  0.5600000000000001 0.14 0  0.58 0.14 0  0.6 0.14 0  0.62 0.14 0  0.64 0.14 0  0.66 0.14 0  0.68 0.14 0  0.7 0.14 0  0.72 0.14 0  0.74 0.14 0  0.76 0.14 0  0.78 0.14 0  0.8 0.14 0  0.82 0.14 0  0.84 0.14 0  0.86 0.14 0  0.88 0.14 0  0.9 0.14 0  0.92 0.14 0  0.9399999999999999 0.14 0  0.96 0.14 0  0.98 0.14 0  1 0.14 0  0 0.16 0  0.02 0.16 0  0.04 0.16 0  0.06 0.16 0  0.08 0.16 0  0.1 0.16 0  0.12 0.16 0  0.14 0.16 0  0.16 0.16 0  0.18 0.16 0  0.2 0.16 0  0.22 0.16 0  0.24 0.16 0  0.26 0.16 0  0.28 0.16 0  0.3 0.16 0  0.32 0.16 0  0.34 0.16 0  0.36 0.16 0  0.38 0.16 0  0.4 0.16 0  0.42 0.16 0  0.44 0.16 0  0.46 0.16 0  0.48 0.16 0  0.5 0.16 0  0.52 0.16 0  0.54 0.16 0  0.5600000000000001 0.16 0  0.58 0.16 0  0.6 0.16 0  0.62 0.16 0  0.64 0.16 0  0.66 0.16 0  0.68 0.16 0  0.7 0.16 0  0.72 0.16 0  0.74 0.16 0  0.76 0.16 0  0.78 0.16 0  0.8 0.16 0  0.82 0.16 0  0.84 0.16 0  0.86 0.16 0  0.88 0.16 0  0.9 0.16 0  0.92 0.16 0  0.9399999999999999 0.16 0  0.96 0.16 0  0.98 0.16 0  1 0.16 0  0 0.18 0  0.02 0.18 0  0.04 0.18 0  0.06 0.18 0  0.08 0.18 0  0.1 0.18 0  0.12 0.18 0  0.14 0.18 0  0.16 0.18 0  0.18 0.18 0  0.2 0.18 0  0.22 0.18 0  0.24 0.18 0  0.26 0.18 0  0.28 0.18 0  0.3 0.18 0  0.32 0.18 0  0.34 0.18 0  0.36 0.18 0  0.38 0.18 0  0.4 0.18 0  0.42 0.18 0  0.44 0.18 0  0.46 0.18 0  0.48 0.18 0  0.5 0.18 0  0.52 0.18 0  0.54 0.18 0  0.5600000000000001 0.18 0  0.58 0.18 0  0.6 0.18 0  0.62 0.18 0  0.64 0.18 0  0.66 0.18 0  0.68 0.18 0  0.7 0.18 0  0.72 0.18 0  0.74 0.18 0  0.76 0.18 0  0.78 0.18 0  0.8 0.18 0  0.82 0.18 0  0.84 0.18 0  0.86 0.18 0  0.88 0.18 0  0.9 0.18 0  0.92 0.18 0  0.9399999999999999 0.18 0  0.96 0.18 0  0.98 0.18 0  1 0.18 0  0 0.2 0  0.02 0.2 0  0.04 0.2 0  0.06 0.2 0  0.08 0.2 0  0.1 0.2 0  0.12 0.2 0  0.14 0.2 0  0.16 0.2 0  0.18 0.2 0  0.2 0.2 0  0.22 0.2 0  0.24 0.2 0  0.26 0.2 0  0.28 0.2 0  0.3 0.2 0  0.32 0.2 0  0.34 0.2 0  0.36 0.2 0  0.38 0.2 0  0.4 0.2 0  0.42 0.2 0  0.44 0.2 0  0.46 0.2 0  0.48 0.2 0  0.5 0.2 0  0.52 0.2 0  0.54 0.2 0  0.5600000000000001 0.2 0  0.58 0.2 0  0.6 0.2 0  0.62 0.2 0  0.64 0.2 0  0.66 0.2 0  0.68 0.2 0  0.7 0.2 0  0.72 0.2 0  0.74 0.2 0  0.76 0.2 0  0.78 0.2 0  0.8 0.2 0  0.82 0.2 0  0.84 0.2 0  0.86 0.2 0  0.88 0.2 0  0.9 0.2 0  0.92 0.2 0  0.9399999999999999 0.2 0  0.96 0.2 0  0.98 0.2 0  1 0.2 0  0 0.22 0  0.02 0.22 0  0.04 0.22 0  0.06 0.22 0  0.08 0.22 0  0.1 0.22 0  0.12 0.22 0  0.14 0.22 0  0.16 0.22 0  0.18 0.22 0  0.2 0.22 0  0.22 0.22 0  0.24 0.22 0  0.26 0.22 0  0.28 0.22 0  0.3 0.22 0  0.32 0.22 0  0.34 0.22 0  0.36 0.22 0  0.38 0.22 0  0.4 0.22 0  0.42 0.22 0  0.44 0.22 0  0.46 0.22 0  0.48 0.22 0  0.5 0.22 0  0.52 0.22 0  0.54 0.22 0  0.5600000000000001 0.22 0  0.58 0.22 0  0.6 0.22 0  0.62 0.22 0  0.64 0.22 0  0.66 0.22 0  0.68 0.22 0  0.7 0.22 0  0.72 0.22 0  0.74 0.22 0  0.76 0.22 0  0.78 0.22 0  0.8 0.22 0  0.82 0.22 0  0.84 0.22 0  0.86 0.22 0  0.88 0.22 0  0.9 0.22 0  0.92 0.22 0  0.9399999999999999 0.22 0  0.96 0.22 0  0.98 0.22 0  1 0.22 0  0 0.24 0  0.02 0.24 0  0.04 0.24 0  0.06 0.24 0  0.08 0.24 0  0.1 0.24 0  0.12 0.24 0  0.14 0.24 0  0.16 0.24 0  0.18 0.24 0  0.2 0.24 0  0.22 0.24 0  0.24 0.24 0  0.26 0.24 0  0.28 0.24 0  0.3 0.24 0  0.32 0.24 0  0.34 0.24 0  0.36 0.24 0  0.38 0.24 0  0.4 0.24 0  0.42 0.24 0  0.44 0.24 0  0.46 0.24 0  0.48 0.24 0  0.5 0.24 0  0.52 0.24 0  0.54 0.24 0  0.5600000000000001 0.24 0  0.58 0.24 0  0.6 0.24 0  0.62 0.24 0  0.64 0.24 0  0.66 0.24 0  0.68 0.24 0  0.7 0.24 0  0.72 0.24 0  0.74 0.24 0  0.76 0.24 0  0.78 0.24 0  0.8 0.24 0  0.82 0.24 0  0.84 0.24 0  0.86 0.24 0  0.88 0.24 0  0.9 0.24 0  0.92 0.24 0  0.9399999999999999 0.24 0  0.96 0.24 0  0.98 0.24 0  1 0.24 0  0 0.26 0  0.02 0.26 0  0.04 0.26 0  0.06 0.26 0  0.08 0.26 0  0.1 0.26 0  0.12 0.26 0  0.14 0.26 0  0.16 0.26 0  0.18 0.26 0  0.2 0.26 0  0.22 0.26 0  0.24 0.26 0  0.26 0.26 0  0.28 0.26 0  0.3 0.26 0  0.32 0.26 0  0.34 0.26 0  0.36 0.26 0  0.38 0.26 0  0.4 0.26 0  0.42 0.26 0  0.44 0.26 0  0.46 0.26 0  0.48 0.26 0  0.5 0.26 0  0.52 0.26 0  0.54 0.26 0  0.5600000000000001 0.26 0  0.58 0.26 0  0.6 0.26 0  0.62 0.26 0  0.64 0.26 0  0.66 0.26 0  0.68 0.26 0  0.7 0.26 0  0.72 0.26 0  0.74 0.26 0  0.76 0.26 0  0.78 0.26 0  0.8 0.26 0  0.82 0.26 0  0.84 0.26 0  0.86 0.26 0  0.88 0.26 0  0.9 0.26 0  0.92 0.26 0  0.9399999999999999 0.26 0  0.96 0.26 0  0.98 0.26 0  1 0.26 0  0 0.28 0  0.02 0.28 0  0.04 0.28 0  0.06 0.28 0  0.08 0.28 0  0.1 0.28 0  0.12 0.28 0  0.14 0.28 0  0.16 0.28 0  0.18 0.28 0  0.2 0.28 0  0.22 0.28 0  0.24 0.28 0  0.26 0.28 0  0.28 0.28 0  0.3 0.28 0  0.32 0.28 0  0.34 0.28 0  0.36 0.28 0  0.38 0.28 0  0.4 0.28 0  0.42 0.28 0  0.44 0.28 0  0.46 0.28 0  0.48 0.28 0  0.5 0.28 0  0.52 0.28 0  0.54 0.28 0  0.5600000000000001 0.28 0  0.58 0.28 0  0.6 0.28 0  0.62 0.28 0  0.64 0.28 0  0.66 0.28 0  0.68 0.28 0  0.7 0.28 0  0.72 0.28 0  0.74 0.28 0  0.76 0.28 0  0.78 0.28 0  0.8 0.28 0  0.82 0.28 0  0.84 0.28 0  0.86 0.28
[...]
<PointData  Scalars="f_12"> 
<DataArray  type="Float64"  Name="f_12"  format="ascii">2.0000000000000000e+00  2.0000000000000000e+00  2.0000000000000000e+00  2.0000000000000000e+00  2.0000000000000000e+00  2.0000000000000000e+00  2.0000000000000000e+00  2.0000000000000000e+00  2.0000000000000000e+00  2.0000000000000000e+00  2.0000000000000000e+00  2.0000000000000000e+00  2.0000000000000000e+00  2.0000000000000000e+00  2.0000000000000000e+00  2.0000000000000000e+00  2.0000000000000000e+00  2.0000000000000000e+00  2.0000000000000000e+00  2.0000000000000000e+00  2.0000000000000000e+00  2.0000000000000000e+00  2.0000000000000000e+00  2.0000000000000000e+00  2.0000000000000000e+00  2.0000000000000000e+00  2.0000000000000000e+00  2.0000000000000000e+00  2.0000000000000000e+00  2.0000000000000000e+00  2.0000000000000000e+00  2.0000000000000000e+00  2.0000000000000000e+00  2.0000000000000000e+00  2.0000000000000000e+00  2.0000000000000000e+00  2.0000000000000000e+00  2.0000000000000000e+00  2.0000000000000000e+00  2.0000000000000000e+00  2.0000000000000000e+00  2.0000000000000000e+00  2.0000000000000000e+00  2.0000000000000000e+00  2.0000000000000000e+00  2.0000000000000000e+00  2.0000000000000000e+00  2.0000000000000000e+00  2.0000000000000000e+00  2.0000000000000000e+00  2.0000000000000000e+00  2.0000000000000000e+00  1.9870541558662154e+00  1.9742413578890989e+00  1.9616924804920981e+00  1.9495291040977207e+00  1.9378610378396408e+00  1.9267833574329638e+00  1.9163742028441730e+00  1.9066934055423996e+00  1.8977819671875120e+00  1.8896623590378707e+00  1.8823395641914418e+00  1.8758027473644274e+00  1.8700274116420490e+00  1.8649778893803113e+00  1.8606100147099378e+00  1.8568738362688562e+00  1.8537162484078209e+00  1.8510834442378183e+00  1.8489231214613964e+00  1.8471863990942876e+00  1.8458294275274820e+00  1.8448146941007106e+00  1.8441120403425533e+00  1.8436994148569523e+00  1.8435633877134703e+00  1.8436994488836445e+00  1.8441121059391941e+00  1.8448147863738888e+00  1.8458295391941708e+00  1.8471865205686662e+00  1.8489232409980658e+00  1.8510835481493302e+00  1.8537163213724681e+00  1.8568738617395923e+00  1.8606099754272445e+00  1.8649777679816686e+00  1.8700271913490123e+00  1.8758024127167621e+00  1.8823391017870250e+00  1.8896617582284152e+00  1.8977812206738995e+00  1.9066925098089520e+00  1.9163731583659405e+00  1.9267821685755742e+00  1.9378597123217354e+00  1.9495276517075284e+00  1.9616909100340125e+00  1.9742396679363285e+00  1.9870522953811449e+00  2.0000000000000000e+00  2.0000000000000000e+00  1.9742413578891018e+00  1.9487485172607004e+00  1.9237806813357075e+00  1.8995797781777581e+00  1.8763642772409739e+00  1.8543233321512003e+00  1.8336124053178147e+00  1.8143505380561364e+00  1.7966193134500905e+00  1.7804634515436160e+00  1.7658928821155093e+00  1.7528860657803487e+00  1.7413942838674599e+00  1.7313465931359171e+00  1.7226551419104223e+00  1.7152205664350799e+00  1.7089372252484523e+00  1.7036980793427110e+00  1.6993990807037773e+00  1.6959429858534216e+00  1.6932425594316503e+00  1.6912231720836453e+00  1.6898248247341021e+00  1.6890036469007550e+00  1.6887329204407571e+00  1.6890036735382585e+00  1.6898248751776170e+00  1.6912232407562284e+00  1.6932426381851384e+00  1.6959430642339677e+00  1.6993991463108515e+00  1.7036981182801831e+00  1.7089372226603134e+00  1.7152205071101856e+00  1.7226550109313776e+00  1.7313463765382848e+00  1.7413939692681069e+00  1.7528856429294566e+00  1.7658923433262093e+00  1.7804627919564731e+00  1.7966185310956564e+00  1.8143496336849527e+00  1.8336113819688284e+00  1.8543221944176391e+00  1.8763630301502527e+00  1.8995784255004751e+00  1.9237792229980459e+00  1.9487469462152269e+00  1.9742396679363277e+00  2.0000000000000000e+00  2.0000000000000000e+00  1.9616924804920983e+00  1.9237806813357075e+00  1.8866495095193643e+00  1.8506586888167884e+00  1.8161330741027257e+00  1.7833539360610859e+00  1.7525524565606332e+00  1.7239056697890447e+00  1.6975349192857052e+00  1.6735067413736773e+00  1.6518359451732765e+00  1.6324905485619046e+00  1.6153981546502856e+00  1.6004533170462361e+00  1.5875254429180741e+00  1.5764668158439452e+00  1.5671203783732828e+00  1.5593269884539878e+00  1.5529319453610719e+00  1.5477906610507937e+00  1.5437734248289006e+00  1.5407692675331621e+00  1.5386889727930204e+00  1.5374673060891233e+00  1.5370645379189074e+00  1.5374673276090050e+00  1.5386890126912627e+00  1.5407693196640317e+00  1.5437734803155803e+00  1.5477907086901090e+00  1.5529319721508963e+00  1.5593269802272507e+00  1.5671203205132249e+00  1.5764666940447063e+00  1.5875252439444967e+00  1.6004530294387245e+00  1.6153977693164092e+00  1.6324900591978517e+00  1.6518353484656481e+00  1.6735060369449670e+00  1.6975341093634362e+00  1.7239047585954077e+00  1.7525514494324050e+00  1.7833528383141730e+00  1.8161318896522183e+00  1.8506574185779998e+00  1.8866481497802174e+00  1.9237792229980457e+00  1.9616909100340143e+00  2.0000000000000000e+00  2.0000000000000000e+00  1.9495291040977201e+00  1.8995797781777553e+00  1.8506586888167884e+00  1.8032396715797512e+00  1.7577506452259168e+00  1.7145621326984894e+00  1.6739786934120067e+00  1.6362335761883604e+00  1.6014866849021425e+00  1.5698257391292716e+00  1.5412703274354302e+00  1.5157784050236740e+00  1.4932546889387774e+00  1.4735603561698454e+00  1.4565234508937281e+00  1.4419494504385788e+00  1.4296315157595088e+00  1.4193600498871461e+00  1.4109312950470083e+00  1.4041548048320343e+00  1.3988597225544777e+00  1.3948998736881555e+00  1.3921577347949745e+00  1.3905473718560746e+00  1.3900164483187292e+00  1.3905473903557442e+00  1.3921577684076272e+00  1.3948999158152324e+00  1.3988597637310873e+00  1.4041548332338241e+00  1.4109312971415773e+00  1.4193600112035119e+00  1.4296314217374904e+00  1.4419492873077748e+00  1.4565232065207931e+00  1.4735600208053934e+00  1.4932542557934663e+00  1.5157778706085456e+00  1.5412696916149089e+00  1.5698250048555846e+00  1.6014858576249715e+00  1.6362326629600867e+00  1.6739777017330124e+00  1.7145610691665887e+00  1.7577495140731800e+00  1.8032384732160061e+00  1.8506574185780023e+00  1.8995784255004773e+00  1.9495276517075280e+00  2.0000000000000000e+00  2.0000000000000000e+00  1.9378610378396395e+00  1.8763642772409725e+00  1.8161330741027262e+00  1.7577506452259157e+00  1.7017437098138899e+00  1.6485683639490771e+00  1.5985995360599188e+00  1.5521244043756679e+00  1.5093398898215162e+00  1.4703540798209029e+00  1.4351912113689707e+00  1.4037996622312812e+00  1.3760622778658915e+00  1.3518083027034338e+00  1.3308261854146404e+00  1.3128765809860488e+00  1.2977049660648829e+00  1.2850534040868355e+00  1.2746711285492129e+00  1.2663237427599374e+00  1.2598009509314645e+00  1.2549228299611657e+00  1.2515447182984836e+00  1.2495608359030752e+00  1.2489067584513218e+00  1.2495608532516378e+00  1.2515447494290379e+00  1.2549228679403224e+00  1.2598009858528112e+00  1.2663237623192167e+00  1.2746711187791315e+00  1.2850533502184247e+00  1.2977048534692321e+00  1.3128763961369052e+00  1.3308259168010319e+00  1.3518079416144391e+00  1.3760618189694964e+00  1.4037991038775739e+00  1.4351905555652544e+00  1.4703533318517563e+00  1.5093390575181411e+00  1.5521234970722857e+00  1.5985985633068229e+00  1.6485673340794924e+00  1.7017426284848960e+00  1.7577495140731825e+00  1.8161318896522223e+00  1.8763630301502556e+00  1.9378597123217343e+00  2.0000000000000000e+00  2.0000000000000000e+00  1.9267833574329638e+00  1.8543233321512014e+00  1.7833539360610884e+00  1.7145621326984897e+00  1.6485683639490767e+00  1.5859099163944064e+00  1.5270285025291377e+00  1.4722625056566914e+00  1.4218440223816329e+00  1.3759005329906271e+00  1.3344607627181377e+00  1.2974640855651776e+00  1.2647726795254415e+00  1.2361855725381212e+00  1.2114537195008164e+00  1.1902953131212390e+00  1.1724106414541984e+00  1.1574959461528493e+00  1.1452558905666004e+00  1.1354143997484067e+00  1.1277237715974286e+00  1.1219720695885438e+00  1.1179888865264866e+00  1.1156496130982250e+00  1.1148783558573354e+00  1.1156496308902126e+00  1.1179889184294458e+00  1.1219721084540142e+00  1.1277238072301274e+00  1.1354144195196429e+00  1.1452558801962642e+00  1.1574958906236683e+00  1.1724105260080477e+00  1.1902951242735234e+00  1.2114534459972950e+00  1.2361852061718499e+00  1.2647722157321366e+00  1.2974635237251497e+00  1.3344601061124541e+00  1.3758997883876398e+00  1.4218431992647258e+00  1.4722616151415502e+00  1.5270275560545459e+00  1.5859089243007014e+00  1.6485673340794955e+00  1.7145610691665909e+00  1.7833528383141795e+00  1.8543221944176442e+00  1.9267821685755759e+00  2.0000000000000000e+00  2.0000000000000000e+00  1.9163742028441730e+00  1.8336124053178158e+00  1.7525524565606352e+00  1.6739786934120058e+00  1.5985995360599166e+00  1.5270285025291370e+00  1.4597700315266691e+00  1.3972106260050625e+00  1.3396154706959411e+00  1.2871303305558421e+00  1.2397882321449436e+00  1.1975201888197682e+00  1.1601690675773502e+00  1.1275056158904120e+00  1.0992456678267333e+00  1.0750676197738178e+00  1.0546293914609064e+00  1.0375842488722353e+00  1.0235950424748708e+00  1.0123465885876703e+00  1.0035560781855566e+00  9.9698152435633192e-01  9.9242834980714545e-01  9.8975426649365172e-01  9.8887261194611442e-01  9.8975428601400106e-01  9.9242838511722931e-01  9.9698156821276251e-01  1.0035561202612167e+00  1.0123466160974142e+00  1.0235950409733567e+00  1.0375842031869795e+00  1.0546292867098057e+00  1.0750674424024431e+00  1.0992454065891033e+00  1.1275052626903712e+00  1.1601686180885515e+00  1.1975196428125097e+00  1.2397875934684062e+00  1.2871296067534408e+00  1.3396146722675133e+00  1.3972097653682263e+00  1.4597691217663704e+00  1.5270275560545457e+00  1.5985985633068240e+00  1.6739777017330173e+00  1.7525514494324108e+00  1.8336113819688338e+00  1.9163731583659420e+00  2.0000000000000000e+00  2.0000000000000000e+00  1.9066934055423987e+00  1.8143505380561384e+00  1.7239056697890440e+00  1.6362335761883595e+00  1.5521244043756681e+00  1.4722625056566916e+00  1.3972106260050638e+00  1.3274000258610870e+00  1.2631267005883866e+00  1.2045534871340515e+00  1.1517175026809778e+00  1.1045420923115328e+00  1.0628522808744960e+00  1.0263926354518391e+00  9.9484644563562952e-01  9.6785520771360511e-01  9.4503753832350657e-01  9.2600682223155606e-01  9.1038709579137000e-01  8.9782686190155503e-01  8.8801070661976433e-01  8.8066872906498039e-01  8.7558389681493365e-01  8.7259749559250654e-01  8.7161285610289840e-01  8.7259751779423722e-01  8.7558393750121988e-01  8.8066878101569179e-01  8.8801075953400799e-01  8.9782690301409485e-01  9.1038711065995914e-01  9.2600679565992439e-01  9.4503745537128325e-01  9.6785505473081412e-01  9.9484621124806283e-01  1.0263923114169402e+00  1.0628518627281633e+00  1.1045415797359710e+00  1.1517168995434097e+00  1.2045528011745010e+00  1.2631259427698700e+00  1.3273992094332776e+00  1.3972097653682287e+00  1.4722616151415531e+00  1.5521234970722924e+00  1.6362326629600943e+00  1.7239047585954155e+00  1.8143496336849609e+00  1.9066925098089573e+00  2.0000000000000000e+00  2.0000000000000000e+00  1.8977819671875145e+00  1.7966193134500898e+00  1.6975349192857025e+00  1.6014866849021407e+00  1.5093398898215162e+00  1.4218440223816327e+00  1.3396154706959433e+00  1.2631267005883871e+00  1.1927021086164276e+00  1.1285203163619562e+00  1.0706223005096533e+00  1.0189244591290696e+00  9.7323551549127152e-01  9.3327606336475877e-01  8.9869955833364568e-01  8.6911364567908989e-01  8.4410086764971459e-01  8.2323798863810849e-01  8.0611339201790000e-01  7.9234221482176193e-01  7.8157907714675712e-01  7.7352841799129990e-01  7.6795255935611395e-01  7.6467768248491486e-01  7.6359791567223012e-01  7.6467770798035062e-01  7.6795260670295873e-01  7.7352848010585395e-01  7.8157914390887850e-01  7.9234227366477439e-01  8.0611342868420877e-01  8.2323798806848492e-01  8.4410081496147926e-01  8.6911352717543544e-01  8.9869936247533122e-01  9.3327578162874492e-01  9.7323514304100844e-01  1.0189239952298821e+00  1.0706217486406193e+00  1.1285196840020899e+00  1.1927014067157640e+00  1.2631259427698722e+00  1.3396146722675193e+00  1.4218431992647302e+00  1.5093390575181487e+00  1.6014858576249791e+00  1.6975341093634444e+00  1.7966185310956646e+00  1.8977812206739053e+00  2.0000000000000000e+00  2.0000000000000000e+00  1.8896623590378734e+00  1.7804634515436180e+00  1.6735067413736804e+00  1.5698257391292716e+00  1.4703540798209032e+00  1.3759005329906280e+00  1.2871303305558455e+00  1.2045534871340551e+00  1.1285203163619584e+00  1.0592238920762342e+00  9.9670880265982109e-01  9.4088522977362732e-01  8.9154716791684840e-01  8.4839349601381808e-01  8.1105061254023680e-01  7.7909543805080084e-01  7.5207775278988065e-01  7.2954104772667872e-01  7.1104129915907999e-01  6.9616330588838071e-01  6.8453443349874787e-01  6.7583577719970456e-01  6.6981087350548985e-01  6.6627215805502227e-01  6.6510538382169859e-01  6.6627218712073022e-01  6.6981092812073284e-01  6.7583585052198747e-01  6.8453451573445145e-01  6.9616338484312734e-01  7.1104136094539783e-01  7.2954107760110087e-01  7.5207773607993778e-01  7.7909536112025257e-01  8.1105046373031420e-01  8.4839326649155478e-01  8.9154685236099529e-01  9.4088482683580121e-01  9.9670831515426106e-01  1.0592233268750311e+00  1.1285196840020932e+00  1.2045528011745052e+00  1.2871296067534470e+00  1.3758997883876478e+00  1.4703533318517650e+00  1.5698250048555960e+00  1.6735060369449775e+00  1.7804627919564830e+00  1.8896617582284199e+00  2.0000000000000000e+00  2.0000000000000000e+00  1.8823395641914431e+00  1.7658928821155124e+00  1.6518359451732816e+00  1.5412703274354331e+00  1.4351912113689740e+00  1.3344607627181420e+00  1.2397882321449503e+00  1.1517175026809854e+00  1.0706223005096580e+00  9.9670880265982331e-01  9.3002494872366592e-01  8.7047542600335903e-01  8.1784106859663996e-01  7.7180129856748514e-01  7.3195823732240495e-01  6.9786121326541517e-01  6.6903056588085330e-01  6.4497987040151794e-01  6.2523595382253061e-01  6.0935631658203782e-01  5.9694379304646661e-01  5.8765846172973757e-01  5.8122694280920129e-01  5.7744929204274598e-01  5.7620371843502605e-01  5.7744932463760013e-01  5.8122700465869814e-01  5.8765854632562597e-01  5.9694389105339651e-01  6.0935641633930782e-01  6.2523604199223159e-01  6.4497993273989795e-01  6.6903058809928295e-01  6.9786118193618640e-01  7.3195814077465171e-01  7.7180112771176113e-01  8.1784081761528504e-01  8.7047509284923408e-01  9.3002453538288488e-01  9.9670831515426395e-01  1.0706217486406240e+00  1.1517168995434168e+00  1.2397875934684157e+00  1.3344601061124635e+00  1.4351905555652655e+00  1.5412696916149209e+00  1.6518353484656605e+00  1.7658923433262201e+00  1.8823391017870299e+00  2.0000000000000000e+00  2.0000000000000000e+00  1.8758027473644283e+00  1.7528860657803518e+00  1.6324905485619083e+00  1.5157784050236780e+00  1.4037996622312858e+00  1.2974640855651838e+00  1.1975201888197766e+00  1.1045420923115421e+00  1.0189244591290778e+00  9.4088522977363231e-01  8.7047542600336170e-01  8.0759493867292809e-01  7.5201297289652402e-01  7.0339170511485605e-01  6.6131170623572622e-01  6.2529778785283008e-01  5.9484411163838313e-01  5.6943763778410883e-01  5.4857924804480895e-01  5.3180213551138977e-01  5.1868728383274421e-01  5.0887604604844161e-01  5.0207996678951983e-01  4.9808806718736043e-01  4.9677183127239022e-01  4.9808810298242684e-01  5.0208003525553713e-01  5.0887614108983237e-01  5.1868739668546437e-01  5.3180225519055502e-01  5.4857936192602352e-01  5.6943773230014672e-01  5.9484417306367465e-01  6.2529780313816408e-01  6.6131166384630613e-01  7.0339159581814037e-01  7.5201279044406621e-01  8.0759468032410475e-01  8.7047509284923863e-01  9.4088482683580843e-01  1.0189239952298919e+00  1.1045415797359821e+00  1.1975196428125237e+00  1.2974635237251659e+00  1.4037991038775890e+00  1.5157778706085598e+00  1.6324900591978693e+00  1.7528856429294730e+00  1.8758024127167696e+00  2.0000000000000000e+00  2.0000000000000000e+00  1.8700274116420501e+00  1.7413942838674608e+00  1.6153981546502894e+00  1.4932546889387797e+00  1.3760622778658969e+00  1.2647726795254468e+00  1.1601690675773617e+00  1.0628522808745080e+00  9.7323551549128218e-01  8.9154716791685495e-01  8.1784106859664396e-01  7.5201297289652658e-01  6.9382192402744514e-01  6.4291497805421360e-01  5.9885378028499303e-01  5.6114158937469671e-01  5.2924953639903483e-01  5.0264115219753358e-01  4.8079446738986192e-01  4.6322125743214915e-01  4.4948324599783090e-01  4.3920527588927910e-01  4.3208559641645317e-01  4.2790349534433197e-01  4.2652452404817742e-01  4.2790353376257045e-01  4.3208567037611101e-01  4.3920537976915208e-01  4.4948337169590113e-01  4.6322139475669871e-01  4.8079460457048889e-01  5.0264127650232482e-01  5.2924963483622711e-01  5.6114164944824296e-01  5.9885379076490830e-01  6.4291492971601294e-01  6.9382181031205081e-01  7.5201279044406955e-01  8.1784081761529404e-01  8.9154685236100717e-01  9.7323514304102232e-01  1.0628518627281782e+00  1.1601686180885686e+00  1.2647722157321555e+00  1.3760618189695144e+00  1.4932542557934863e+00  1.6153977693164288e+00  1.7413939692681251e+00  1.8700271913490241e+00  2.0000000000000000e+00  2.0000000000000000e+00  1.8649778893803113e+00  1.7313465931359207e+00  1.6004533170462389e+00  1.4735603561698476e+00  1.3518083027034380e+00  1.2361855725381272e+00  1.1275056158904202e+00  1.0263926354518480e+00  9.3327606336476576e-01  8.4839349601382230e-01  7.7180129856748825e-01  7.0339170511485694e-01  6.4291497805421349e-01  5.9000506099807737e-01  5.4420715819866539e-01  5.0500578410557984e-01  4.7185202431750006e-01  4.4418900407834816e-01  4.2147484144748260e-01  4.0320264009555296e-01  3.8891732655033362e-01  3.7822934000774799e-01  3.7082532790167438e-01  3.6647608273527321e-01  3.6504197720569542e-01  3.6647612299855425e-01  3.7082540582051415e-01  3.7822945047915968e-01  3.8891746220057111e-01  4.0320279161492761e-01  4.2147499803078936e-01  4.4418915396131708e-01  4.7185215539298808e-01  5.0500588459543116e-01  5.4420721734941357e-01  5.9000506976232037e-01  6.4291492971601583e-01  7.0339159581814636e-01  7.7180112771177134e-01  8.4839326649156943e-01  9.3327578162876135e-01  1.0263923114169589e+00  1.1275052626903916e+00  1.2361852061718712e+00  1.3518079416144626e+00  1.4735600208054171e+00  1.6004530294387473e+00  1.7313463765383044e+00  1.8649777679816792e+00  2.0000000000000000e+00  2.0000000000000000e+00  1.8606100147099396e+00  1.7226551419104286e+00  1.5875254429180774e+00  1.4565234508937310e+00  1.3308261854146430e+00  1.2114537195008188e+00  1.0992456678267364e+00  9.9484644563563429e-01  8.9869955833364901e-01  8.1105061254023936e-01  7.3195823732240695e-01  6.6131170623572655e-01  5.9885378028499281e-01  5.4420715819866483e-01  4.9690291871377651e-01  4.5640945317276910e-01  4.2216059009298273e-01  3.9358187579765735e-01  3.7011426461086883e-01  3.5123475838072910e-01  3.3647379264762567e-01  3.2542937639936681e-01  3.1777814204552157e-01  3.1328354728156599e-01  3.1180149293073595e-01  3.1328358846218046e-01  3.1777822208061252e-01  3.2542949073012434e-01  3.3647393466981484e-01  3.5123491972551213e-01  3.7011443551698853e-01  3.9358204556895815e-01  4.2216074762970646e-01  4.5640958755834771e-01  4.9690301983190566e-01  5.4420721734941513e-01  5.9885379076491263e-01  6.6131166384631301e-01  7.3195814077466304e-01  8.1105046373032785e-01  8.9869936247534676e-01  9.9484621124808126e-01  1.0992454065891248e+00  1.2114534459973174e+00  1.3308259168010563e+00  1.4565232065208167e+00  1.5875252439445198e+00  1.7226550109313978e+00  1.8606099754272569e+00  2.0000000000000000e+00  2.0000000000000000e+00  1.8568738362688584e+00  1.7152205664350817e+00  1.5764668158439457e+00  1.4419494504385786e+00  1.3128765809860508e+00  1.1902953131212419e+00  1.0750676197738214e+00  9.6785520771360745e-01  8.6911364567909299e-01  7.7909543805080206e-01  6.9786121326541684e-01  6.2529778785283086e-01  5.6114158937469649e