<?xml version="1.0"?>
<VTKFile type="UnstructuredGrid"  version="0.1"  >
<UnstructuredGrid>
<Piece  NumberOfPoints="2601" NumberOfCells="5000">
<Points>
<DataArray  type="Float64"  NumberOfComponents="3"  format="ascii">0 0 0  0.02 0 0  0.04 0 0  0.06 0 0  0.08 0 0  0.1 0 0  0.12 0 0  0.14 0 0  0.16 0 0  0.18 0 0  0.2 0 0  0.22 0 0  0.24 0 0  0.26 0 0  0.28 0 0  0.3 0 0  0.32 0 0  0.34 0 0  0.36 0 0  0.38 0 0  0.4 0 0  0.42 0 0  0.44 0 0  0.46 0 0  0.48 0 0  0.5 0 0  0.52 0 0  0.54 0 0  0.5600000000000001 0 0  0.58 0 0  0.6 0 0  0.62 0 0  0.64 0 0  0.66 0 0  0.68 0 0  0.7 0 0  0.72 0 0  0.74 0 0  0.76 0 0  0.78 0 0  0.8 0 0  0.82 0 0  0.84 0 0  0.86 0 0  0.88 0 0  0.9 0 0  0.92 0 0  0.9399999999999999 0 0  0.96 0 0  0.98 0 0  1 0 0  0 0.02 0  0.02 0.02 0  0.04 0.02 0  0.06 0.02 0  0.08 0.02 0  0.1 0.02 0  0.12 0.02 0  0.14 0.02 0  0.16 0.02 0  0.18 0.02 0  0.2 0.02 0  0.22 0.02 0  0.24 0.02 0  0.26 0.02 0  0.28 0.02 0  0.3 0.02 0  0.32 0.02 0  0.34 0.02 0  0.36 0.02 0  0.38 0.02 0  0.4 0.02 0  0.42 0.02 0  0.44 0.02 0  0.46 0.02 0  0.48 0.02 0  0.5 0.02 0  0.52 0.02 0  0.54 0.02 0  0.5600000000000001 0.02 0  0.58 0.02 0  0.6 0.02 0  0.62 0.02 0  0.64 0.02 0  0.66 0.02 0  0.68 0.02 0  0.7 0.02 0  0.72 0.02 0  0.74 0.02 0  0.76 0.02 0  0.78 0.02 0  0.8 0.02 0  0.82 0.02 0  0.84 0.02 0  0.86 0.02 0  0.88 0.02 0  0.9 0.02 0  0.92 0.02 0  0.9399999999999999 0.02 0  0.96 0.02 0  0.98 0.02 0  1 0.02 0  0 0.04 0  0.02 0.04 0  0.04 0.04 0  0.06 0.04 0  0.08 0.04 0  0.1 0.04 0  0.12 0.04 0  0.14 0.04 0  0.16 0.04 0  0.18 0.04 0  0.2 0.04 0  0.22 0.04 0  0.24 0.04 0  0.26 0.04 0  0.28 0.04 0  0.3 0.04 0  0.32 0.04 0  0.34 0.04 0  0.36 0.04 0  0.38 0.04 0  0.4 0.04 0  0.42 0.04 0  0.44 0.04 0  0.46 0.04 0  0.48 0.04 0  0.5 0.04 0  0.52 0.04 0  0.54 0.04 0  0.5600000000000001 0.04 0  0.58 0.04 0  0.6 0.04 0  0.62 0.04 0  0.64 0.04 0  0.66 0.04 0  0.68 0.04 0  0.7 0.04 0  0.72 0.04 0  0.74 0.04 0  0.76 0.04 0  0.78 0.04 0  0.8 0.04 0  0.82 0.04 0  0.84 0.04 0  0.86 0.04 0  0.88 0.04 0  0.9 0.04 0  0.92 0.04 0  0.9399999999999999 0.04 0  0.96 0.04 0  0.98 0.04 0  1 0.04 0  0 0.06 0  0.02 0.06 0  0.04 0.06 0  0.06 0.06 0  0.08 0.06 0  0.1 0.06 0  0.12 0.06 0  0.14 0.06 0  0.16 0.06 0  0.18 0.06 0  0.2 0.06 0  0.22 0.06 0  0.24 0.06 0  0.26 0.06 0  0.28 0.06 0  0.3 0.06 0  0.32 0.06 0  0.34 0.06 0  0.36 0.06 0  0.38 0.06 0  0.4 0.06 0  0.42 0.06 0  0.44 0.06 0  0.46 0.06 0  0.48 0.06 0  0.5 0.06 0  0.52 0.06 0  0.54 0.06 0  0.5600000000000001 0.06 0  0.58 0.06 0  0.6 0.06 0  0.62 0.06 0  0.64 0.06 0  0.66 0.06 0  0.68 0.06 0  0.7 0.06 0  0.72 0.06 0  0.74 0.06 0  0.76 0.06 0  0.78 0.06 0  0.8 0.06 0  0.82 0.06 0  0.84 0.06 0  0.86 0.06 0  0.88 0.06 0  0.9 0.06 0  0.92 0.06 0  0.9399999999999999 0.06 0  0.96 0.06 0  0.98 0.06 0  1 0.06 0  0 0.08 0  0.02 0.08 0  0.04 0.08 0  0.06 0.08 0  0.08 0.08 0  0.1 0.08 0  0.12 0.08 0  0.14 0.08 0  0.16 0.08 0  0.18 0.08 0  0.2 0.08 0  0.22 0.08 0  0.24 0.08 0  0.26 0.08 0  0.28 0.08 0  0.3 0.08 0  0.32 0.08 0  0.34 0.08 0  0.36 0.08 0  0.38 0.08 0  0.4 0.08 0  0.42 0.08 0  0.44 0.08 0  0.46 0.08 0  0.48 0.08 0  0.5 0.08 0  0.52 0.08 0  0.54 0.08 0  0.5600000000000001 0.08 0  0.58 0.08 0  0.6 0.08 0  0.62 0.08 0  0.64 0.08 0  0.66 0.08 0  0.68 0.08 0  0.7 0.08 0  0.72 0.08 0  0.74 0.08 0  0.76 0.08 0  0.78 0.08 0  0.8 0.08 0  0.82 0.08 0  0.84 0.08 0  0.86 0.08 0  0.88 0.08 0  0.9 0.08 0  0.92 0.08 0  0.9399999999999999 0.08 0  0.96 0.08 0  0.98 0.08 0  1 0.08 0  0 0.1 0  0.02 0.1 0  0.04 0.1 0  0.06 0.1 0  0.08 0.1 0  0.1 0.1 0  0.12 0.1 0  0.14 0.1 0  0.16 0.1 0  0.18 0.1 0  0.2 0.1 0  0.22 0.1 0  0.24 0.1 0  0.26 0.1 0  0.28 0.1 0  0.3 0.1 0  0.32 0.1 0  0.34 0.1 0  0.36 0.1 0  0.38 0.1 0  0.4 0.1 0  0.42 0.1 0  0.44 0.1 0  0.46 0.1 0  0.48 0.1 0  0.5 0.1 0  0.52 0.1 0  0.54 0.1 0  0.5600000000000001 0.1 0  0.58 0.1 0  0.6 0.1 0  0.62 0.1 0  0.64 0.1 0  0.66 0.1 0  0.68 0.1 0  0.7 0.1 0  0.72 0.1 0  0.74 0.1 0  0.76 0.1 0  0.78 0.1 0  0.8 0.1 0  0.82 0.1 0  0.84 0.1 0  0.86 0.1 0  0.88 0.1 0  0.9 0.1 0  0.92 0.1 0  0.9399999999999999 0.1 0  0.96 0.1 0  0.98 0.1 0  1 0.1 0  0 0.12 0  0.02 0.12 0  0.04 0.12 0  0.06 0.12 0  0.08 0.12 0  0.1 0.12 0  0.12 0.12 0  0.14 0.12 0  0.16 0.12 0  0.18 0.12 0  0.2 0.12 0  0.22 0.12 0  0.24 0.12 0  0.26 0.12 0  0.28 0.12 0  0.3 0.12 0  0.32 0.12 0  0.34 0.12 0  0.36 0.12 0  0.38 0.12 0  0.4 0.12 0  0.42 0.12 0  0.44 0.12 0  0.46 0.12 0  0.48 0.12 0  0.5 0.12 0  0.52 0.12 0  0.54 0.12 0  0.5600000000000001 0.12 0  0.58 0.12 0  0.6 0.12 0  0.62 0.12 0  0.64 0.12 0  0.66 0.12 0  0.68 0.12 0  0.7 0.12 0  0.72 0.12 0  0.74 0.12 0  0.76 0.12 0  0.78 0.12 0  0.8 0.12 0  0.82 0.12 0  0.84 0.12 0  0.86 0.12 0  0.88 0.12 0  0.9 0.12 0  0.92 0.12 0  0.9399999999999999 0.12 0  0.96 0.12 0  0.98 0.12 0  1 0.12 0  0 0.14 0  0.02 0.14 0  0.04 0.14 0  0.06 0.14 0  0.08 0.14 0  0.1 0.14 0  0.12 0.14 0  0.14 0.14 0  0.16 0.14 0  0.18 0.14 0  0.2 0.14 0  0.22 0.14 0  0.24 0.14 0  0.26 0.14 0  0.28 0.14 0  0.3 0.14 0  0.32 0.14 0  0.34 0.14 0  0.36 0.14 0  0.38 0.14 0  0.4 0.14 0  0.42 0.14 0  0.44 0.14 0  0.46 0.14 0  0.48 0.14 0  0.5 0.14 0  0.52 0.14 0  0.54 0.14 0  0.5600000000000001 0.14 0  0.58 0.14 0  0.6 0.14 0  0.62 0.14 0  0.64 0.14 0  0.66 0.14 0  0.68 0.14 0  0.7 0.14 0  0.72 0.14 0  0.74 0.14 0  0.76 0.14 0  0.78 0.14 0  0.8 0.14 0  0.82 0.14 0  0.84 0.14 0  0.86 0.14 0  0.88 0.14 0  0.9 0.14 0  0.92 0.14 0  0.9399999999999999 0.14 0  0.96 0.14 0  0.98 0.14 0  1 0.14 0  0 0.16 0  0.02 0.16 0  0.04 0.16 0  0.06 0.16 0  0.08 0.16 0  0.1 0.16 0  0.12 0.16 0  0.14 0.16 0  0.16 0.16 0  0.18 0.16 0  0.2 0.16 0  0.22 0.16 0  0.24 0.16 0  0.26 0.16 0  0.28 0.16 0  0.3 0.16 0  0.32 0.16 0  0.34 0.16 0  0.36 0.16 0  0.38 0.16 0  0.4 0.16 0  0.42 0.16 0  0.44 0.16 0  0.46 0.16 0  0.48 0.16 0  0.5 0.16 0  0.52 0.16 0  0.54 0.16 0  0.5600000000000001 0.16 0  0.58 0.16 0  0.6 0.16 0  0.62 0.16 0  0.64 0.16 0  0.66 0.16 0  0.68 0.16 0  0.7 0.16 0  0.72 0.16 0  0.74 0.16 0  0.76 0.16 0  0.78 0.16 0  0.8 0.16 0  0.82 0.16 0  0.84 0.16 0  0.86 0.16 0  0.88 0.16 0  0.9 0.16 0  0.92 0.16 0  0.9399999999999999 0.16 0  0.96 0.16 0  0.98 0.16 0  1 0.16 0  0 0.18 0  0.02 0.18 0  0.04 0.18 0  0.06 0.18 0  0.08 0.18 0  0.1 0.18 0  0.12 0.18 0  0.14 0.18 0  0.16 0.18 0  0.18 0.18 0  0.2 0.18 0  0.22 0.18 0  0.24 0.18 0  0.26 0.18 0  0.28 0.18 0  0.3 0.18 0  0.32 0.18 0  0.34 0.18 0  0.36 0.18 0  0.38 0.18 0  0.4 0.18 0  0.42 0.18 0  0.44 0.18 0  0.46 0.18 0  0.48 0.18 0  0.5 0.18 0  0.52 0.18 0  0.54 0.18 0  0.5600000000000001 0.18 0  0.58 0.18 0  0.6 0.18 0  0.62 0.18 0  0.64 0.18 0  0.66 0.18 0  0.68 0.18 0  0.7 0.18 0  0.72 0.18 0  0.74 0.18 0  0.76 0.18 0  0.78 0.18 0  0.8 0.18 0  0.82 0.18 0  0.84 0.18 0  0.86 0.18 0  0.88 0.18 0  0.9 0.18 0  0.92 0.18 0  0.9399999999999999 0.18 0  0.96 0.18 0  0.98 0.18 0  1 0.18 0  0 0.2 0  0.02 0.2 0  0.04 0.2 0  0.06 0.2 0  0.08 0.2 0  0.1 0.2 0  0.12 0.2 0  0.14 0.2 0  0.16 0.2 0  0.18 0.2 0  0.2 0.2 0  0.22 0.2 0  0.24 0.2 0  0.26 0.2 0  0.28 0.2 0  0.3 0.2 0  0.32 0.2 0  0.34 0.2 0  0.36 0.2 0  0.38 0.2 0  0.4 0.2 0  0.42 0.2 0  0.44 0.2 0  0.46 0.2 0  0.48 0.2 0  0.5 0.2 0  0.52 0.2 0  0.54 0.2 0  0.5600000000000001 0.2 0  0.58 0.2 0  0.6 0.2 0  0.62 0.2 0  0.64 0.2 0  0.66 0.2 0  0.68 0.2 0  0.7 0.2 0  0.72 0.2 0  0.74 0.2 0  0.76 0.2 0  0.78 0.2 0  0.8 0.2 0  0.82 0.2 0  0.84 0.2 0  0.86 0.2 0  0.88 0.2 0  0.9 0.2 0  0.92 0.2 0  0.9399999999999999 0.2 0  0.96 0.2 0  0.98 0.2 0  1 0.2 0  0 0.22 0  0.02 0.22 0  0.04 0.22 0  0.06 0.22 0  0.08 0.22 0  0.1 0.22 0  0.12 0.22 0  0.14 0.22 0  0.16 0.22 0  0.18 0.22 0  0.2 0.22 0  0.22 0.22 0  0.24 0.22 0  0.26 0.22 0  0.28 0.22 0  0.3 0.22 0  0.32 0.22 0  0.34 0.22 0  0.36 0.22 0  0.38 0.22 0  0.4 0.22 0  0.42 0.22 0  0.44 0.22 0  0.46 0.22 0  0.48 0.22 0  0.5 0.22 0  0.52 0.22 0  0.54 0.22 0  0.5600000000000001 0.22 0  0.58 0.22 0  0.6 0.22 0  0.62 0.22 0  0.64 0.22 0  0.66 0.22 0  0.68 0.22 0  0.7 0.22 0  0.72 0.22 0  0.74 0.22 0  0.76 0.22 0  0.78 0.22 0  0.8 0.22 0  0.82 0.22 0  0.84 0.22 0  0.86 0.22 0  0.88 0.22 0  0.9 0.22 0  0.92 0.22 0  0.9399999999999999 0.22 0  0.96 0.22 0  0.98 0.22 0  1 0.22 0  0 0.24 0  0.02 0.24 0  0.04 0.24 0  0.06 0.24 0  0.08 0.24 0  0.1 0.24 0  0.12 0.24 0  0.14 0.24 0  0.16 0.24 0  0.18 0.24 0  0.2 0.24 0  0.22 0.24 0  0.24 0.24 0  0.26 0.24 0  0.28 0.24 0  0.3 0.24 0  0.32 0.24 0  0.34 0.24 0  0.36 0.24 0  0.38 0.24 0  0.4 0.24 0  0.42 0.24 0  0.44 0.24 0  0.46 0.24 0  0.48 0.24 0  0.5 0.24 0  0.52 0.24 0  0.54 0.24 0  0.5600000000000001 0.24 0  0.58 0.24 0  0.6 0.24 0  0.62 0.24 0  0.64 0.24 0  0.66 0.24 0  0.68 0.24 0  0.7 0.24 0  0.72 0.24 0  0.74 0.24 0  0.76 0.24 0  0.78 0.24 0  0.8 0.24 0  0.82 0.24 0  0.84 0.24 0  0.86 0.24 0  0.88 0.24 0  0.9 0.24 0  0.92 0.24 0  0.9399999999999999 0.24 0  0.96 0.24 0  0.98 0.24 0  1 0.24 0  0 0.26 0  0.02 0.26 0  0.04 0.26 0  0.06 0.26 0  0.08 0.26 0  0.1 0.26 0  0.12 0.26 0  0.14 0.26 0  0.16 0.26 0  0.18 0.26 0  0.2 0.26 0  0.22 0.26 0  0.24 0.26 0  0.26 0.26 0  0.28 0.26 0  0.3 0.26 0  0.32 0.26 0  0.34 0.26 0  0.36 0.26 0  0.38 0.26 0  0.4 0.26 0  0.42 0.26 0  0.44 0.26 0  0.46 0.26 0  0.48 0.26 0  0.5 0.26 0  0.52 0.26 0  0.54 0.26 0  0.5600000000000001 0.26 0  0.58 0.26 0  0.6 0.26 0  0.62 0.26 0  0.64 0.26 0  0.66 0.26 0  0.68 0.26 0  0.7 0.26 0  0.72 0.26 0  0.74 0.26 0  0.76 0.26 0  0.78 0.26 0  0.8 0.26 0  0.82 0.26 0  0.84 0.26 0  0.86 0.26 0  0.88 0.26 0  0.9 0.26 0  0.92 0.26 0  0.9399999999999999 0.26 0  0.96 0.26 0  0.98 0.26 0  1 0.26 0  0 0.28 0  0.02 0.28 0  0.04 0.28 0  0.06 0.28 0  0.08 0.28 0  0.1 0.28 0  0.12 0.28 0  0.14 0.28 0  0.16 0.28 0  0.18 0.28 0  0.2 0.28 0  0.22 0.28 0  0.24 0.28 0  0.26 0.28 0  0.28 0.28 0  0.3 0.28 0  0.32 0.28 0  0.34 0.28 0  0.36 0.28 0  0.38 0.28 0  0.4 0.28 0  0.42 0.28 0  0.44 0.28 0  0.46 0.28 0  0.48 0.28 0  0.5 0.28 0  0.52 0.28 0  0.54 0.28 0  0.5600000000000001 0.28 0  0.58 0.28 0  0.6 0.28 0  0.62 0.28 0  0.64 0.28 0  0.66 0.28 0  0.68 0.28 0  0.7 0.28 0  0.72 0.28 0  0.74 0.28 0  0.76 0.28 0  0.78 0.28 0  0.8 0.28 0  0.82 0.28 0  0.84 0.28 0  0.86 0.28
[...]
<PointData  Scalars="f_12"> 
<DataArray  type="Float64"  Name="f_12"  format="ascii">2.0000000000000000e+00  2.0000000000000000e+00  2.0000000000000000e+00  2.0000000000000000e+00  2.0000000000000000e+00  2.0000000000000000e+00  2.0000000000000000e+00  2.0000000000000000e+00  2.0000000000000000e+00  2.0000000000000000e+00  2.0000000000000000e+00  2.0000000000000000e+00  2.0000000000000000e+00  2.0000000000000000e+00  2.0000000000000000e+00  2.0000000000000000e+00  2.0000000000000000e+00  2.0000000000000000e+00  2.0000000000000000e+00  2.0000000000000000e+00  2.0000000000000000e+00  2.0000000000000000e+00  2.0000000000000000e+00  2.0000000000000000e+00  2.0000000000000000e+00  2.0000000000000000e+00  2.0000000000000000e+00  2.0000000000000000e+00  2.0000000000000000e+00  2.0000000000000000e+00  2.0000000000000000e+00  2.0000000000000000e+00  2.0000000000000000e+00  2.0000000000000000e+00  2.0000000000000000e+00  2.0000000000000000e+00  2.0000000000000000e+00  2.0000000000000000e+00  2.0000000000000000e+00  2.0000000000000000e+00  2.0000000000000000e+00  2.0000000000000000e+00  2.0000000000000000e+00  2.0000000000000000e+00  2.0000000000000000e+00  2.0000000000000000e+00  2.0000000000000000e+00  2.0000000000000000e+00  2.0000000000000000e+00  2.0000000000000000e+00  2.0000000000000000e+00  2.0000000000000000e+00  1.8778699112009443e+00  1.7694024312334424e+00  1.6830652835627367e+00  1.6204466684401289e+00  1.5784118553682867e+00  1.5519408050517327e+00  1.5361301980970499e+00  1.5270951520862990e+00  1.5221209339074333e+00  1.5194679657113779e+00  1.5180911265025436e+00  1.5173932998577617e+00  1.5170468719591284e+00  1.5168780042957031e+00  1.5167970124547854e+00  1.5167587255269912e+00  1.5167408600376426e+00  1.5167326208798293e+00  1.5167288614352252e+00  1.5167271627012926e+00  1.5167264021627940e+00  1.5167260650664531e+00  1.5167259182834429e+00  1.5167258583570025e+00  1.5167258423962982e+00  1.5167258588627268e+00  1.5167259196125089e+00  1.5167260680371024e+00  1.5167264085525811e+00  1.5167271762040844e+00  1.5167288895516287e+00  1.5167326785284287e+00  1.5167409762270803e+00  1.5167589552032605e+00  1.5167974564954625e+00  1.5168788409918106e+00  1.5170484016828585e+00  1.5173959976984339e+00  1.5180956797315812e+00  1.5194752364702864e+00  1.5221317286610545e+00  1.5271096147241825e+00  1.5361466441552338e+00  1.5519540461761057e+00  1.5784117569868010e+00  1.6204188231615426e+00  1.6829961087331964e+00  1.7692872900082131e+00  1.8777110543954709e+00  2.0000000000000000e+00  2.0000000000000000e+00  1.7694024312334431e+00  1.5643589156101871e+00  1.4006770481182491e+00  1.2815622360938153e+00  1.2013278659481461e+00  1.1506349752343183e+00  1.1202650363234692e+00  1.1028618610203331e+00  1.0932565530975820e+00  1.0881220218733529e+00  1.0854518533767028e+00  1.0840960251735554e+00  1.0834218130679454e+00  1.0830926655652402e+00  1.0829345817559388e+00  1.0828597566724805e+00  1.0828248010828603e+00  1.0828086631034319e+00  1.0828012922346544e+00  1.0827979586088565e+00  1.0827964648508210e+00  1.0827958022457880e+00  1.0827955135109384e+00  1.0827953955339689e+00  1.0827953640312993e+00  1.0827953962725378e+00  1.0827955154423603e+00  1.0827958065333367e+00  1.0827964740001685e+00  1.0827979777746375e+00  1.0828013317655212e+00  1.0828087433245497e+00  1.0828249609630456e+00  1.0828600688615888e+00  1.0829351772392852e+00  1.0830937710135315e+00  1.0834238008415402e+00  1.0840994659456391e+00  1.0854575384001106e+00  1.0881308799734983e+00  1.0932693291656628e+00  1.1028783804111097e+00  1.1202829488257537e+00  1.1506482301971455e+00  1.2013259729934720e+00  1.2815323281334385e+00  1.4006103890765114e+00  1.5642592414027081e+00  1.7692872900082122e+00  2.0000000000000000e+00  2.0000000000000000e+00  1.6830652835627367e+00  1.4006770481182487e+00  1.1744062274112979e+00  1.0090006266948752e+00  8.9706058752257689e-01  8.2601161247001775e-01  7.8326328879278495e-01  7.5866970765816732e-01  7.4504669691745951e-01  7.3774054515325393e-01  7.3392969655806750e-01  7.3198941539670581e-01  7.3102218947707542e-01  7.3054892993475562e-01  7.3032116324749452e-01  7.3021315177244450e-01  7.3016260502042352e-01  7.3013923167210315e-01  7.3012854030995256e-01  7.3012369829037915e-01  7.3012152587841228e-01  7.3012056109924395e-01  7.3012014023557237e-01  7.3011996809779844e-01  7.3011992205053078e-01  7.3011996896164255e-01  7.3012014248639256e-01  7.3012056607086651e-01  7.3012153642669209e-01  7.3012372024941374e-01  7.3012858530301106e-01  7.3013932233984791e-01  7.3016278438827198e-01  7.3021349929670143e-01  7.3032182074611562e-01  7.3055014021722542e-01  7.3102434701109908e-01  7.3199311808599032e-01  7.3393576542826666e-01  7.3774994045221565e-01  7.4506021094850039e-01  7.5868729154652870e-01  7.8328296073377424e-01  8.2602823892098054e-01  8.9706550198470281e-01  1.0089837197362146e+00  1.1743616314786112e+00  1.4006103890765111e+00  1.6829961087331968e+00  2.0000000000000000e+00  2.0000000000000000e+00  1.6204466684401273e+00  1.2815622360938130e+00  1.0090006266948752e+00  8.0882280210107227e-01  6.7266652874039734e-01  5.8581083375814003e-01  5.3329824375499058e-01  5.0294928252775284e-01  4.8606700307267686e-01  4.7697751207530403e-01  4.7221946698484690e-01  4.6978894162867424e-01  4.6857366410674595e-01  4.6797738002860745e-01  4.6768967008912676e-01  4.6755290999272880e-01  4.6748876980948834e-01  4.6745905071314803e-01  4.6744543117040355e-01  4.6743925223302174e-01  4.6743647549683459e-01  4.6743524047591345e-01  4.6743470098431555e-01  4.6743448005692273e-01  4.6743442086137071e-01  4.6743448095622042e-01  4.6743470331920806e-01  4.6743524560820149e-01  4.6743648632571738e-01  4.6743927464240287e-01  4.6744547680006043e-01  4.6745914206746492e-01  4.6748894932493085e-01  4.6755325541918485e-01  4.6769031910467124e-01  4.6797856658533721e-01  4.6857576585329647e-01  4.6979252885988715e-01  4.7222532504092185e-01  4.7698657885624390e-01  4.8608012846363341e-01  5.0296670709630886e-01  5.3331877711981990e-01  5.8583097987186428e-01  6.7268027450839907e-01  8.0882317923912117e-01  1.0089837197362141e+00  1.2815323281334385e+00  1.6204188231615413e+00  2.0000000000000000e+00  2.0000000000000000e+00  1.5784118553682860e+00  1.2013278659481450e+00  8.9706058752257711e-01  6.7266652874039723e-01  5.1933086524951200e-01  4.2104765983824949e-01  3.6134464940675787e-01  3.2668270358039125e-01  3.0731785861945632e-01  2.9684941134613646e-01  2.9134875364896873e-01  2.8852896789696603e-01  2.8711443321706132e-01  2.8641826704558920e-01  2.8608141197760345e-01  2.8592086926655697e-01  2.8584539029058009e-01  2.8581033735920935e-01  2.8579423910964574e-01  2.8578692103036846e-01  2.8578362623180203e-01  2.8578215824050851e-01  2.8578151596244444e-01  2.8578125257890574e-01  2.8578118189603180e-01  2.8578125344486943e-01  2.8578151820235209e-01  2.8578216313871857e-01  2.8578363650639227e-01  2.8578694216007672e-01  2.8579428185367461e-01  2.8581042236150445e-01  2.8584555617723262e-01  2.8592118625671337e-01  2.8608200348239604e-01  2.8641934136439157e-01  2.8711632490624017e-01  2.8853218147825366e-01  2.9135398845774479e-01  2.9685752472917132e-01  3.0732970178055713e-01  3.2669876232495987e-01  3.6136448488870071e-01  4.2106932285387760e-01  5.1935074196327558e-01  6.7268027450839973e-01  8.9706550198470325e-01  1.2013259729934729e+00  1.5784117569868008e+00  2.0000000000000000e+00  2.0000000000000000e+00  1.5519408050517318e+00  1.1506349752343186e+00  8.2601161247001809e-01  5.8581083375814014e-01  4.2104765983824949e-01  3.1501038806128367e-01  2.5033043445870479e-01  2.1262520324368991e-01  1.9147635537290114e-01  1.7999986980996055e-01  1.7394764222691234e-01  1.7083444411754309e-01  1.6926765673063623e-01  1.6849420517387431e-01  1.6811887937765149e-01  1.6793951893969397e-01  1.6785497880343853e-01  1.6781562407628831e-01  1.6779750959038042e-01  1.6778925752938756e-01  1.6778553482927633e-01  1.6778387309647724e-01  1.6778314481173348e-01  1.6778284571847660e-01  1.6778276533032863e-01  1.6778284650410399e-01  1.6778314683558790e-01  1.6778387749760018e-01  1.6778554400277274e-01  1.6778927626756898e-01  1.6779754723073539e-01  1.6781569838946028e-01  1.6785512276498812e-01  1.6793979200494552e-01  1.6811938522018782e-01  1.6849511755905947e-01  1.6926925331030857e-01  1.7083714296233668e-01  1.7395202628673598e-01  1.8000667015367186e-01  1.9148634989195221e-01  2.1263898806097839e-01  2.5034806635664941e-01  3.1503100234413711e-01  4.2106932285387805e-01  5.8583097987186505e-01  8.2602823892098165e-01  1.1506482301971466e+00  1.5519540461761059e+00  2.0000000000000000e+00  2.0000000000000000e+00  1.5361301980970496e+00  1.1202650363234696e+00  7.8326328879278695e-01  5.3329824375499013e-01  3.6134464940675759e-01  2.5033043445870456e-01  1.8239044046196703e-01  1.4265132854657633e-01  1.2028684594282078e-01  1.0811067987748238e-01  1.0166889281307401e-01  9.8345065063014520e-02  9.6667309956604039e-02  9.5836728787242462e-02  9.5432589579770716e-02  9.5238962241305819e-02  9.5147473896003337e-02  9.5104785490594992e-02  9.5085093079315564e-02  9.5076103342193893e-02  9.5072039776824172e-02  9.5070222483046030e-02  9.5069424644773651e-02  9.5069096499403233e-02  9.5069008176407427e-02  9.5069097177873721e-02  9.5069426384889050e-02  9.5070226244304612e-02  9.5072047562803130e-02  9.5076119129937339e-02  9.5085124552081082e-02  9.5104847142282775e-02  9.5147592381542065e-02  9.5239185192617842e-02  9.5432999343040670e-02  9.5837462313156832e-02  9.6668584740849120e-02  9.8347207645402779e-02  1.0167236000702946e-01  1.0811605382425100e-01  1.2029477556927753e-01  1.4266239074492493e-01  1.8240491815303592e-01  2.5034806635664952e-01  3.6136448488870132e-01  5.3331877711982090e-01  7.8328296073377479e-01  1.1202829488257542e+00  1.5361466441552325e+00  2.0000000000000000e+00  2.0000000000000000e+00  1.5270951520862988e+00  1.1028618610203342e+00  7.5866970765816621e-01  5.0294928252775273e-01  3.2668270358039114e-01  2.1262520324368969e-01  1.4265132854657639e-01  1.0161739346167571e-01  7.8463478883022200e-02  6.5824142121876830e-02  5.9119713364344607e-02  5.5651397051224530e-02  5.3896268003457773e-02  5.3025237992446066e-02  5.2600403902533323e-02  5.2396391270681006e-02  5.2299781341459788e-02  5.2254606689989651e-02  5.2233724496233536e-02  5.2224172803708592e-02  5.2219847067841517e-02  5.2217909056582086e-02  5.2217056806983395e-02  5.2216705780752257e-02  5.2216611174938712e-02  5.2216706342114817e-02  5.2217058239923723e-02  5.2217912133724419e-02  5.2219853390482310e-02  5.2224185523105593e-02  5.2233749644513411e-02  5.2254655538195006e-02  5.2299874416914312e-02  5.2396564900294020e-02  5.2600720296682904e-02  5.3025799708820723e-02  5.3897236714586697e-02  5.5653014312919531e-02  5.9122317063145802e-02  6.5828166710671529e-02  7.8469422438088202e-02  1.0162573486470051e-01  1.4266239074492523e-01  2.1263898806097861e-01  3.2669876232496081e-01  5.0296670709631031e-01  7.5868729154652981e-01  1.1028783804111113e+00  1.5271096147241823e+00  2.0000000000000000e+00  2.0000000000000000e+00  1.5221209339074355e+00  1.0932565530975824e+00  7.4504669691745884e-01  4.8606700307267658e-01  3.0731785861945599e-01  1.9147635537290089e-01  1.2028684594282096e-01  7.8463478883022200e-02  5.4818627973031678e-02  4.1885608056177304e-02  3.5011493739324030e-02  3.1448136897024845e-02  2.9641237600211111e-02  2.8742703071723646e-02  2.8303580825233047e-02  2.8092294412099220e-02  2.7992048659494190e-02  2.7945086502196008e-02  2.7923338655337377e-02  2.7913373498380769e-02  2.7908852832356446e-02  2.7906824183017157e-02  2.7905930716423038e-02  2.7905562229280208e-02  2.7905462801385911e-02  2.7905562676236947e-02  2.7905931851562638e-02  2.7906826603694000e-02  2.7908857766722795e-02  2.7913383341164184e-02  2.7923357945474552e-02  2.7945123634168831e-02  2.7992118762365514e-02  2.8092423978894748e-02  2.8303814757362711e-02  2.8743114664915248e-02  2.9641941383030310e-02  3.1449302809758502e-02  3.5013358661821543e-02  4.1888477355721238e-02  5.4822856738674312e-02  7.8469422438088299e-02  1.2029477556927788e-01  1.9148634989195235e-01  3.0732970178055796e-01  4.8608012846363480e-01  7.4506021094850172e-01  1.0932693291656643e+00  1.5221317286610558e+00  2.0000000000000000e+00  2.0000000000000000e+00  1.5194679657113788e+00  1.0881220218733538e+00  7.3774054515325571e-01  4.7697751207530392e-01  2.9684941134613624e-01  1.7999986980996027e-01  1.0811067987748246e-01  6.5824142121876858e-02  4.1885608056177380e-02  2.8773489020362954e-02  2.1793927721630763e-02  1.8170424908128674e-02  1.6330185353182185e-02  1.5413639828889566e-02  1.4965011609812196e-02  1.4748812634267319e-02  1.4646076156188152e-02  1.4597872902707051e-02  1.4575516345211429e-02  1.4565256947740380e-02  1.4560595988679176e-02  1.4558501416408638e-02  1.4557577684352278e-02  1.4557196273414640e-02  1.4557093254748799e-02  1.4557196616972905e-02  1.4557578552228268e-02  1.4558503253512035e-02  1.4560599702002288e-02  1.4565264288556810e-02  1.4575530598211655e-02  1.4597900076774244e-02  1.4646126960501523e-02  1.4748905611245399e-02  1.4965177834499976e-02  1.5413929476616291e-02  1.6330676031250647e-02  1.8171230758619546e-02  2.1795206810397264e-02  2.8775444572875491e-02  4.1888477355721286e-02  6.5828166710671598e-02  1.0811605382425121e-01  1.8000667015367230e-01  2.9685752472917237e-01  4.7698657885624596e-01  7.3774994045221742e-01  1.0881308799735001e+00  1.5194752364702870e+00  2.0000000000000000e+00  2.0000000000000000e+00  1.5180911265025432e+00  1.0854518533767044e+00  7.3392969655806917e-01  4.7221946698484751e-01  2.9134875364896889e-01  1.7394764222691245e-01  1.0166889281307423e-01  5.9119713364344857e-02  3.5011493739324127e-02  2.1793927721630801e-02  1.4751116982902183e-02  1.1090875203725717e-02  9.2299084693458610e-03  8.3019743007076013e-03  7.8472369099803190e-03  7.6278314979376493e-03  7.5234451691490309e-03  7.4744082185069210e-03  7.4516372932184813e-03  7.4411750589962293e-03  7.4364162303091194e-03  7.4342751543507914e-03  7.4333298550400689e-03  7.4329391566703446e-03  7.4328335411495833e-03  7.4329394122603643e-03  7.4333304970841188e-03  7.4342765029103610e-03  7.4364189320751855e-03  7.4411803498483685e-03  7.4516474657094498e-03  7.4744274185718582e-03  7.5234806990346166e-03  7.6278958504485562e-03  7.8473507715058604e-03  8.3021706790819046e-03  9.2302378403021253e-03  1.1091411028039854e-02  1.4751960071219105e-02  2.1795206810397316e-02  3.5013358661821557e-02  5.9122317063145913e-02  1.0167236000702989e-01  1.7395202628673651e-01  2.9135398845774624e-01  4.7222532504092374e-01  7.3393576542826899e-01  1.0854575384001131e+00  1.5180956797315821e+00  2.0000000000000000e+00  2.0000000000000000e+00  1.5173932998577619e+00  1.0840960251735561e+00  7.3198941539670648e-01  4.6978894162867463e-01  2.8852896789696630e-01  1.7083444411754323e-01  9.8345065063014714e-02  5.5651397051224787e-02  3.1448136897025067e-02  1.8170424908128761e-02  1.1090875203725746e-02  7.4089069951821943e-03  5.5354659894825799e-03  4.6005602144922417e-03  4.1420212090497212e-03  3.9205888031865772e-03  3.8151436414031728e-03  3.7655638774845971e-03  3.7425194280342332e-03  3.7319215389934853e-03  3.7270964394570433e-03  3.7249235053880758e-03  3.7239632736802701e-03  3.7235660881260314e-03  3.7234586467520046e-03  3.7235662725415507e-03  3.7239637342437702e-03  3.7249244649837192e-03  3.7270983442776406e-03  3.7319252326559606e-03  3.7425264575224196e-03  3.7655770070276957e-03  3.8151676799160904e-03  3.9206318750670335e-03  4.1420965977027741e-03  4.6006888491577922e-03  5.5356794808988120e-03  7.4092508041773072e-03  1.1091411028039899e-02  1.8171230758619671e-02  3.1449302809758627e-02  5.5653014312919753e-02  9.8347207645403362e-02  1.7083714296233771e-01  2.8853218147825538e-01  4.6979252885989004e-01  7.3199311808599321e-01  1.0840994659456431e+00  1.5173959976984366e+00  2.0000000000000000e+00  2.0000000000000000e+00  1.5170468719591277e+00  1.0834218130679443e+00  7.3102218947707531e-01  4.6857366410674567e-01  2.8711443321706176e-01  1.6926765673063646e-01  9.6667309956604511e-02  5.3896268003458148e-02  2.9641237600211371e-02  1.6330185353182290e-02  9.2299084693459061e-03  5.5354659894826016e-03  3.6547380827064080e-03  2.7156904767794599e-03  2.2548555869810576e-03  2.0321794688562471e-03  1.9260746372510660e-03  1.8761516964256092e-03  1.8529318732589193e-03  1.8422458315480530e-03  1.8373771131532433e-03  1.8351829564163299e-03  1.8342126676077562e-03  1.8338110728841708e-03  1.8337023820951086e-03  1.8338112021651157e-03  1.8342129885472696e-03  1.8351836195539734e-03  1.8373784169945307e-03  1.8422483342634538e-03  1.8529365862790803e-03  1.8761604047193110e-03  1.9260904066900541e-03  2.0322074119631531e-03  2.2549039530783358e-03  2.7157720921809183e-03  3.6548720658763369e-03  5.5356794808988381e-03  9.2302378403022155e-03  1.6330676031250806e-02  2.9641941383030491e-02  5.3897236714587043e-02  9.6668584740849925e-02  1.6926925331030990e-01  2.8711632490624239e-01  4.6857576585330013e-01  7.3102434701110308e-01  1.0834238008415453e+00  1.5170484016828623e+00  2.0000000000000000e+00  2.0000000000000000e+00  1.5168780042957020e+00  1.0830926655652406e+00  7.3054892993475595e-01  4.6797738002860712e-01  2.8641826704558909e-01  1.6849420517387451e-01  9.5836728787242656e-02  5.3025237992446288e-02  2.8742703071723771e-02  1.5413639828889623e-02  8.3019743007076378e-03  4.6005602144922539e-03  2.7156904767794599e-03  1.7742492265509762e-03  1.3120657604535602e-03  1.0886474590707173e-03  9.8214289621482813e-04  9.3200890831085157e-04  9.0867968806692290e-04  8.9793790097854700e-04  8.9304123681563700e-04  8.9083331449105207e-04  8.8985642861844072e-04  8.8945191452713358e-04  8.8934239074364425e-04  8.8945200272141792e-04  8.8985664622370244e-04  8.9083376029553925e-04  8.9304210480698680e-04  8.9793954980060006e-04  9.0868275971277355e-04  9.3201452142687119e-04  9.8215294716739445e-04  1.0886650680930533e-03  1.3120958941979402e-03  1.7742995020215277e-03  2.7157720921809308e-03  4.6006888491578269e-03  8.3021706790819948e-03  1.5413929476616493e-02  2.8743114664915512e-02  5.3025799708821209e-02  9.5837462313157720e-02  1.6849511755906113e-01  2.8641934136439445e-01  4.6797856658534198e-01  7.3055014021723030e-01  1.0830937710135371e+00  1.5168788409918137e+00  2.0000000000000000e+00  2.0000000000000000e+00  1.5167970124547856e+00  1.0829345817559408e+00  7.3032116324749397e-01  4.6768967008912665e-01  2.8608141197760373e-01  1.6811887937765135e-01  9.5432589579770730e-02  5.2600403902533413e-02  2.8303580825233078e-02  1.4965011609812213e-02  7.8472369099803364e-03  4.1420212090497220e-03  2.2548555869810580e-03  1.3120657604535591e-03  8.4911025925327763e-04  6.2526037069896966e-04  5.1851979040587514e-04  4.6825933555351353e-04  4.4486361647184464e-04  4.3408747327012805e-04  4.2917335681339917e-04  4.2695672951398875e-04  4.2597562387795910e-04  4.2556922463949488e-04  4.2545915917152638e-04  4.2556928327183008e-04  4.2597576764779590e-04  4.2695702150821524e-04  4.2917391969493764e-04  4.3408853121774157e-04  4.4486556582278269e-04  4.6826285801288887e-04  5.1852602630452676e-04  6.2527117089635615e-04  8.4912852929229748e-04  1.3120958941979460e-03  2.2549039530783523e-03  4.1420965977028113e-03  7.8473507715059506e-03  1.4965177834500154e-02  2.8303814757362936e-02  5.2600720296683348e-02  9.5432999343041558e-02  1.6811938522018943e-01  2.8608200348239898e-01  4.6769031910467534e-01  7.3032182074612040e-01  1.0829351772392908e+00  1.5167974564954667e+00  2.0000000000000000e+00  2.0000000000000000e+00  1.5167587255269916e+00  1.0828597566724800e+00  7.3021315177244339e-01  4.6755290999272781e-01  2.8592086926655713e-01  1.6793951893969405e-01  9.5238962241305819e-02  5.2396391270680992e-02  2.8092294412099240e-02  1.4748812634267328e-02  7.6278314979376614e-03  3.9205888031865832e-03  2.0321794688562458e