<?xml version="1.0"?>
<VTKFile type="UnstructuredGrid"  version="0.1"  >
<UnstructuredGrid>
<Piece  NumberOfPoints="2601" NumberOfCells="5000">
<Points>
<DataArray  type="Float64"  NumberOfComponents="3"  format="ascii">0 0 0  0.02 0 0  0.04 0 0  0.06 0 0  0.08 0 0  0.1 0 0  0.12 0 0  0.14 0 0  0.16 0 0  0.18 0 0  0.2 0 0  0.22 0 0  0.24 0 0  0.26 0 0  0.28 0 0  0.3 0 0  0.32 0 0  0.34 0 0  0.36 0 0  0.38 0 0  0.4 0 0  0.42 0 0  0.44 0 0  0.46 0 0  0.48 0 0  0.5 0 0  0.52 0 0  0.54 0 0  0.5600000000000001 0 0  0.58 0 0  0.6 0 0  0.62 0 0  0.64 0 0  0.66 0 0  0.68 0 0  0.7 0 0  0.72 0 0  0.74 0 0  0.76 0 0  0.78 0 0  0.8 0 0  0.82 0 0  0.84 0 0  0.86 0 0  0.88 0 0  0.9 0 0  0.92 0 0  0.9399999999999999 0 0  0.96 0 0  0.98 0 0  1 0 0  0 0.02 0  0.02 0.02 0  0.04 0.02 0  0.06 0.02 0  0.08 0.02 0  0.1 0.02 0  0.12 0.02 0  0.14 0.02 0  0.16 0.02 0  0.18 0.02 0  0.2 0.02 0  0.22 0.02 0  0.24 0.02 0  0.26 0.02 0  0.28 0.02 0  0.3 0.02 0  0.32 0.02 0  0.34 0.02 0  0.36 0.02 0  0.38 0.02 0  0.4 0.02 0  0.42 0.02 0  0.44 0.02 0  0.46 0.02 0  0.48 0.02 0  0.5 0.02 0  0.52 0.02 0  0.54 0.02 0  0.5600000000000001 0.02 0  0.58 0.02 0  0.6 0.02 0  0.62 0.02 0  0.64 0.02 0  0.66 0.02 0  0.68 0.02 0  0.7 0.02 0  0.72 0.02 0  0.74 0.02 0  0.76 0.02 0  0.78 0.02 0  0.8 0.02 0  0.82 0.02 0  0.84 0.02 0  0.86 0.02 0  0.88 0.02 0  0.9 0.02 0  0.92 0.02 0  0.9399999999999999 0.02 0  0.96 0.02 0  0.98 0.02 0  1 0.02 0  0 0.04 0  0.02 0.04 0  0.04 0.04 0  0.06 0.04 0  0.08 0.04 0  0.1 0.04 0  0.12 0.04 0  0.14 0.04 0  0.16 0.04 0  0.18 0.04 0  0.2 0.04 0  0.22 0.04 0  0.24 0.04 0  0.26 0.04 0  0.28 0.04 0  0.3 0.04 0  0.32 0.04 0  0.34 0.04 0  0.36 0.04 0  0.38 0.04 0  0.4 0.04 0  0.42 0.04 0  0.44 0.04 0  0.46 0.04 0  0.48 0.04 0  0.5 0.04 0  0.52 0.04 0  0.54 0.04 0  0.5600000000000001 0.04 0  0.58 0.04 0  0.6 0.04 0  0.62 0.04 0  0.64 0.04 0  0.66 0.04 0  0.68 0.04 0  0.7 0.04 0  0.72 0.04 0  0.74 0.04 0  0.76 0.04 0  0.78 0.04 0  0.8 0.04 0  0.82 0.04 0  0.84 0.04 0  0.86 0.04 0  0.88 0.04 0  0.9 0.04 0  0.92 0.04 0  0.9399999999999999 0.04 0  0.96 0.04 0  0.98 0.04 0  1 0.04 0  0 0.06 0  0.02 0.06 0  0.04 0.06 0  0.06 0.06 0  0.08 0.06 0  0.1 0.06 0  0.12 0.06 0  0.14 0.06 0  0.16 0.06 0  0.18 0.06 0  0.2 0.06 0  0.22 0.06 0  0.24 0.06 0  0.26 0.06 0  0.28 0.06 0  0.3 0.06 0  0.32 0.06 0  0.34 0.06 0  0.36 0.06 0  0.38 0.06 0  0.4 0.06 0  0.42 0.06 0  0.44 0.06 0  0.46 0.06 0  0.48 0.06 0  0.5 0.06 0  0.52 0.06 0  0.54 0.06 0  0.5600000000000001 0.06 0  0.58 0.06 0  0.6 0.06 0  0.62 0.06 0  0.64 0.06 0  0.66 0.06 0  0.68 0.06 0  0.7 0.06 0  0.72 0.06 0  0.74 0.06 0  0.76 0.06 0  0.78 0.06 0  0.8 0.06 0  0.82 0.06 0  0.84 0.06 0  0.86 0.06 0  0.88 0.06 0  0.9 0.06 0  0.92 0.06 0  0.9399999999999999 0.06 0  0.96 0.06 0  0.98 0.06 0  1 0.06 0  0 0.08 0  0.02 0.08 0  0.04 0.08 0  0.06 0.08 0  0.08 0.08 0  0.1 0.08 0  0.12 0.08 0  0.14 0.08 0  0.16 0.08 0  0.18 0.08 0  0.2 0.08 0  0.22 0.08 0  0.24 0.08 0  0.26 0.08 0  0.28 0.08 0  0.3 0.08 0  0.32 0.08 0  0.34 0.08 0  0.36 0.08 0  0.38 0.08 0  0.4 0.08 0  0.42 0.08 0  0.44 0.08 0  0.46 0.08 0  0.48 0.08 0  0.5 0.08 0  0.52 0.08 0  0.54 0.08 0  0.5600000000000001 0.08 0  0.58 0.08 0  0.6 0.08 0  0.62 0.08 0  0.64 0.08 0  0.66 0.08 0  0.68 0.08 0  0.7 0.08 0  0.72 0.08 0  0.74 0.08 0  0.76 0.08 0  0.78 0.08 0  0.8 0.08 0  0.82 0.08 0  0.84 0.08 0  0.86 0.08 0  0.88 0.08 0  0.9 0.08 0  0.92 0.08 0  0.9399999999999999 0.08 0  0.96 0.08 0  0.98 0.08 0  1 0.08 0  0 0.1 0  0.02 0.1 0  0.04 0.1 0  0.06 0.1 0  0.08 0.1 0  0.1 0.1 0  0.12 0.1 0  0.14 0.1 0  0.16 0.1 0  0.18 0.1 0  0.2 0.1 0  0.22 0.1 0  0.24 0.1 0  0.26 0.1 0  0.28 0.1 0  0.3 0.1 0  0.32 0.1 0  0.34 0.1 0  0.36 0.1 0  0.38 0.1 0  0.4 0.1 0  0.42 0.1 0  0.44 0.1 0  0.46 0.1 0  0.48 0.1 0  0.5 0.1 0  0.52 0.1 0  0.54 0.1 0  0.5600000000000001 0.1 0  0.58 0.1 0  0.6 0.1 0  0.62 0.1 0  0.64 0.1 0  0.66 0.1 0  0.68 0.1 0  0.7 0.1 0  0.72 0.1 0  0.74 0.1 0  0.76 0.1 0  0.78 0.1 0  0.8 0.1 0  0.82 0.1 0  0.84 0.1 0  0.86 0.1 0  0.88 0.1 0  0.9 0.1 0  0.92 0.1 0  0.9399999999999999 0.1 0  0.96 0.1 0  0.98 0.1 0  1 0.1 0  0 0.12 0  0.02 0.12 0  0.04 0.12 0  0.06 0.12 0  0.08 0.12 0  0.1 0.12 0  0.12 0.12 0  0.14 0.12 0  0.16 0.12 0  0.18 0.12 0  0.2 0.12 0  0.22 0.12 0  0.24 0.12 0  0.26 0.12 0  0.28 0.12 0  0.3 0.12 0  0.32 0.12 0  0.34 0.12 0  0.36 0.12 0  0.38 0.12 0  0.4 0.12 0  0.42 0.12 0  0.44 0.12 0  0.46 0.12 0  0.48 0.12 0  0.5 0.12 0  0.52 0.12 0  0.54 0.12 0  0.5600000000000001 0.12 0  0.58 0.12 0  0.6 0.12 0  0.62 0.12 0  0.64 0.12 0  0.66 0.12 0  0.68 0.12 0  0.7 0.12 0  0.72 0.12 0  0.74 0.12 0  0.76 0.12 0  0.78 0.12 0  0.8 0.12 0  0.82 0.12 0  0.84 0.12 0  0.86 0.12 0  0.88 0.12 0  0.9 0.12 0  0.92 0.12 0  0.9399999999999999 0.12 0  0.96 0.12 0  0.98 0.12 0  1 0.12 0  0 0.14 0  0.02 0.14 0  0.04 0.14 0  0.06 0.14 0  0.08 0.14 0  0.1 0.14 0  0.12 0.14 0  0.14 0.14 0  0.16 0.14 0  0.18 0.14 0  0.2 0.14 0  0.22 0.14 0  0.24 0.14 0  0.26 0.14 0  0.28 0.14 0  0.3 0.14 0  0.32 0.14 0  0.34 0.14 0  0.36 0.14 0  0.38 0.14 0  0.4 0.14 0  0.42 0.14 0  0.44 0.14 0  0.46 0.14 0  0.48 0.14 0  0.5 0.14 0  0.52 0.14 0  0.54 0.14 0  0.5600000000000001 0.14 0  0.58 0.14 0  0.6 0.14 0  0.62 0.14 0  0.64 0.14 0  0.66 0.14 0  0.68 0.14 0  0.7 0.14 0  0.72 0.14 0  0.74 0.14 0  0.76 0.14 0  0.78 0.14 0  0.8 0.14 0  0.82 0.14 0  0.84 0.14 0  0.86 0.14 0  0.88 0.14 0  0.9 0.14 0  0.92 0.14 0  0.9399999999999999 0.14 0  0.96 0.14 0  0.98 0.14 0  1 0.14 0  0 0.16 0  0.02 0.16 0  0.04 0.16 0  0.06 0.16 0  0.08 0.16 0  0.1 0.16 0  0.12 0.16 0  0.14 0.16 0  0.16 0.16 0  0.18 0.16 0  0.2 0.16 0  0.22 0.16 0  0.24 0.16 0  0.26 0.16 0  0.28 0.16 0  0.3 0.16 0  0.32 0.16 0  0.34 0.16 0  0.36 0.16 0  0.38 0.16 0  0.4 0.16 0  0.42 0.16 0  0.44 0.16 0  0.46 0.16 0  0.48 0.16 0  0.5 0.16 0  0.52 0.16 0  0.54 0.16 0  0.5600000000000001 0.16 0  0.58 0.16 0  0.6 0.16 0  0.62 0.16 0  0.64 0.16 0  0.66 0.16 0  0.68 0.16 0  0.7 0.16 0  0.72 0.16 0  0.74 0.16 0  0.76 0.16 0  0.78 0.16 0  0.8 0.16 0  0.82 0.16 0  0.84 0.16 0  0.86 0.16 0  0.88 0.16 0  0.9 0.16 0  0.92 0.16 0  0.9399999999999999 0.16 0  0.96 0.16 0  0.98 0.16 0  1 0.16 0  0 0.18 0  0.02 0.18 0  0.04 0.18 0  0.06 0.18 0  0.08 0.18 0  0.1 0.18 0  0.12 0.18 0  0.14 0.18 0  0.16 0.18 0  0.18 0.18 0  0.2 0.18 0  0.22 0.18 0  0.24 0.18 0  0.26 0.18 0  0.28 0.18 0  0.3 0.18 0  0.32 0.18 0  0.34 0.18 0  0.36 0.18 0  0.38 0.18 0  0.4 0.18 0  0.42 0.18 0  0.44 0.18 0  0.46 0.18 0  0.48 0.18 0  0.5 0.18 0  0.52 0.18 0  0.54 0.18 0  0.5600000000000001 0.18 0  0.58 0.18 0  0.6 0.18 0  0.62 0.18 0  0.64 0.18 0  0.66 0.18 0  0.68 0.18 0  0.7 0.18 0  0.72 0.18 0  0.74 0.18 0  0.76 0.18 0  0.78 0.18 0  0.8 0.18 0  0.82 0.18 0  0.84 0.18 0  0.86 0.18 0  0.88 0.18 0  0.9 0.18 0  0.92 0.18 0  0.9399999999999999 0.18 0  0.96 0.18 0  0.98 0.18 0  1 0.18 0  0 0.2 0  0.02 0.2 0  0.04 0.2 0  0.06 0.2 0  0.08 0.2 0  0.1 0.2 0  0.12 0.2 0  0.14 0.2 0  0.16 0.2 0  0.18 0.2 0  0.2 0.2 0  0.22 0.2 0  0.24 0.2 0  0.26 0.2 0  0.28 0.2 0  0.3 0.2 0  0.32 0.2 0  0.34 0.2 0  0.36 0.2 0  0.38 0.2 0  0.4 0.2 0  0.42 0.2 0  0.44 0.2 0  0.46 0.2 0  0.48 0.2 0  0.5 0.2 0  0.52 0.2 0  0.54 0.2 0  0.5600000000000001 0.2 0  0.58 0.2 0  0.6 0.2 0  0.62 0.2 0  0.64 0.2 0  0.66 0.2 0  0.68 0.2 0  0.7 0.2 0  0.72 0.2 0  0.74 0.2 0  0.76 0.2 0  0.78 0.2 0  0.8 0.2 0  0.82 0.2 0  0.84 0.2 0  0.86 0.2 0  0.88 0.2 0  0.9 0.2 0  0.92 0.2 0  0.9399999999999999 0.2 0  0.96 0.2 0  0.98 0.2 0  1 0.2 0  0 0.22 0  0.02 0.22 0  0.04 0.22 0  0.06 0.22 0  0.08 0.22 0  0.1 0.22 0  0.12 0.22 0  0.14 0.22 0  0.16 0.22 0  0.18 0.22 0  0.2 0.22 0  0.22 0.22 0  0.24 0.22 0  0.26 0.22 0  0.28 0.22 0  0.3 0.22 0  0.32 0.22 0  0.34 0.22 0  0.36 0.22 0  0.38 0.22 0  0.4 0.22 0  0.42 0.22 0  0.44 0.22 0  0.46 0.22 0  0.48 0.22 0  0.5 0.22 0  0.52 0.22 0  0.54 0.22 0  0.5600000000000001 0.22 0  0.58 0.22 0  0.6 0.22 0  0.62 0.22 0  0.64 0.22 0  0.66 0.22 0  0.68 0.22 0  0.7 0.22 0  0.72 0.22 0  0.74 0.22 0  0.76 0.22 0  0.78 0.22 0  0.8 0.22 0  0.82 0.22 0  0.84 0.22 0  0.86 0.22 0  0.88 0.22 0  0.9 0.22 0  0.92 0.22 0  0.9399999999999999 0.22 0  0.96 0.22 0  0.98 0.22 0  1 0.22 0  0 0.24 0  0.02 0.24 0  0.04 0.24 0  0.06 0.24 0  0.08 0.24 0  0.1 0.24 0  0.12 0.24 0  0.14 0.24 0  0.16 0.24 0  0.18 0.24 0  0.2 0.24 0  0.22 0.24 0  0.24 0.24 0  0.26 0.24 0  0.28 0.24 0  0.3 0.24 0  0.32 0.24 0  0.34 0.24 0  0.36 0.24 0  0.38 0.24 0  0.4 0.24 0  0.42 0.24 0  0.44 0.24 0  0.46 0.24 0  0.48 0.24 0  0.5 0.24 0  0.52 0.24 0  0.54 0.24 0  0.5600000000000001 0.24 0  0.58 0.24 0  0.6 0.24 0  0.62 0.24 0  0.64 0.24 0  0.66 0.24 0  0.68 0.24 0  0.7 0.24 0  0.72 0.24 0  0.74 0.24 0  0.76 0.24 0  0.78 0.24 0  0.8 0.24 0  0.82 0.24 0  0.84 0.24 0  0.86 0.24 0  0.88 0.24 0  0.9 0.24 0  0.92 0.24 0  0.9399999999999999 0.24 0  0.96 0.24 0  0.98 0.24 0  1 0.24 0  0 0.26 0  0.02 0.26 0  0.04 0.26 0  0.06 0.26 0  0.08 0.26 0  0.1 0.26 0  0.12 0.26 0  0.14 0.26 0  0.16 0.26 0  0.18 0.26 0  0.2 0.26 0  0.22 0.26 0  0.24 0.26 0  0.26 0.26 0  0.28 0.26 0  0.3 0.26 0  0.32 0.26 0  0.34 0.26 0  0.36 0.26 0  0.38 0.26 0  0.4 0.26 0  0.42 0.26 0  0.44 0.26 0  0.46 0.26 0  0.48 0.26 0  0.5 0.26 0  0.52 0.26 0  0.54 0.26 0  0.5600000000000001 0.26 0  0.58 0.26 0  0.6 0.26 0  0.62 0.26 0  0.64 0.26 0  0.66 0.26 0  0.68 0.26 0  0.7 0.26 0  0.72 0.26 0  0.74 0.26 0  0.76 0.26 0  0.78 0.26 0  0.8 0.26 0  0.82 0.26 0  0.84 0.26 0  0.86 0.26 0  0.88 0.26 0  0.9 0.26 0  0.92 0.26 0  0.9399999999999999 0.26 0  0.96 0.26 0  0.98 0.26 0  1 0.26 0  0 0.28 0  0.02 0.28 0  0.04 0.28 0  0.06 0.28 0  0.08 0.28 0  0.1 0.28 0  0.12 0.28 0  0.14 0.28 0  0.16 0.28 0  0.18 0.28 0  0.2 0.28 0  0.22 0.28 0  0.24 0.28 0  0.26 0.28 0  0.28 0.28 0  0.3 0.28 0  0.32 0.28 0  0.34 0.28 0  0.36 0.28 0  0.38 0.28 0  0.4 0.28 0  0.42 0.28 0  0.44 0.28 0  0.46 0.28 0  0.48 0.28 0  0.5 0.28 0  0.52 0.28 0  0.54 0.28 0  0.5600000000000001 0.28 0  0.58 0.28 0  0.6 0.28 0  0.62 0.28 0  0.64 0.28 0  0.66 0.28 0  0.68 0.28 0  0.7 0.28 0  0.72 0.28 0  0.74 0.28 0  0.76 0.28 0  0.78 0.28 0  0.8 0.28 0  0.82 0.28 0  0.84 0.28 0  0.86 0.28
[...]
<PointData  Scalars="f_12"> 
<DataArray  type="Float64"  Name="f_12"  format="ascii">2.0000000000000000e+00  2.0000000000000000e+00  2.0000000000000000e+00  2.0000000000000000e+00  2.0000000000000000e+00  2.0000000000000000e+00  2.0000000000000000e+00  2.0000000000000000e+00  2.0000000000000000e+00  2.0000000000000000e+00  2.0000000000000000e+00  2.0000000000000000e+00  2.0000000000000000e+00  2.0000000000000000e+00  2.0000000000000000e+00  2.0000000000000000e+00  2.0000000000000000e+00  2.0000000000000000e+00  2.0000000000000000e+00  2.0000000000000000e+00  2.0000000000000000e+00  2.0000000000000000e+00  2.0000000000000000e+00  2.0000000000000000e+00  2.0000000000000000e+00  2.0000000000000000e+00  2.0000000000000000e+00  2.0000000000000000e+00  2.0000000000000000e+00  2.0000000000000000e+00  2.0000000000000000e+00  2.0000000000000000e+00  2.0000000000000000e+00  2.0000000000000000e+00  2.0000000000000000e+00  2.0000000000000000e+00  2.0000000000000000e+00  2.0000000000000000e+00  2.0000000000000000e+00  2.0000000000000000e+00  2.0000000000000000e+00  2.0000000000000000e+00  2.0000000000000000e+00  2.0000000000000000e+00  2.0000000000000000e+00  2.0000000000000000e+00  2.0000000000000000e+00  2.0000000000000000e+00  2.0000000000000000e+00  2.0000000000000000e+00  2.0000000000000000e+00  2.0000000000000000e+00  1.9551156707539630e+00  1.9119025280569089e+00  1.8718557469071320e+00  1.8360975149121881e+00  1.8053037812835451e+00  1.7796971663125913e+00  1.7591075536379481e+00  1.7430749293434888e+00  1.7309660306291401e+00  1.7220813598665485e+00  1.7157382442647584e+00  1.7113249790497298e+00  1.7083281590826322e+00  1.7063392180770280e+00  1.7050473204054881e+00  1.7042250241699022e+00  1.7037115328307109e+00  1.7033966083376315e+00  1.7032067469362808e+00  1.7030941724970108e+00  1.7030285682124775e+00  1.7029911555600239e+00  1.7029706327710945e+00  1.7029605124476010e+00  1.7029574847696338e+00  1.7029605401159267e+00  1.7029706940509008e+00  1.7029912629734751e+00  1.7030287420192460e+00  1.7030944421025862e+00  1.7032071520325061e+00  1.7033971989107828e+00  1.7037123667499583e+00  1.7042261606754048e+00  1.7050488076638723e+00  1.7063410733919180e+00  1.7083303417273787e+00  1.7113273583078688e+00  1.7157405689958736e+00  1.7220832398741226e+00  1.7309669424343408e+00  1.7430742571205571e+00  1.7591046679133362e+00  1.7796915286576409e+00  1.8052950464080832e+00  1.8360855886325111e+00  1.8718407508477481e+00  1.9118845898675416e+00  1.9550942119892296e+00  2.0000000000000000e+00  2.0000000000000000e+00  1.9119025280569091e+00  1.8270943447044683e+00  1.7484910208515554e+00  1.6782938026922718e+00  1.6178298359167509e+00  1.5675383307240911e+00  1.5270887661295722e+00  1.4955818614676091e+00  1.4717778151864169e+00  1.4543059356344858e+00  1.4418275602014157e+00  1.4331424422711470e+00  1.4272426298937599e+00  1.4233255574708679e+00  1.4207803146502200e+00  1.4191596646718820e+00  1.4181472658942620e+00  1.4175261399251158e+00  1.4171515454275634e+00  1.4169293617632714e+00  1.4167998385643532e+00  1.4167259509922214e+00  1.4166854073873050e+00  1.4166654074844025e+00  1.4166594184128911e+00  1.4166654458638959e+00  1.4166854919012424e+00  1.4167260978172436e+00  1.4168000734418937e+00  1.4169297211845790e+00  1.4171520770909034e+00  1.4175269012701661e+00  1.4181483190765838e+00  1.4191610660645440e+00  1.4207820971676446e+00  1.4233277051246020e+00  1.4272450464046544e+00  1.4331449193540615e+00  1.4418297556495046e+00  1.4543073747847848e+00  1.4717779288682116e+00  1.4955800660368694e+00  1.5270845754316962e+00  1.5675314690149134e+00  1.6178203038685930e+00  1.6782818475932446e+00  1.7484769847224622e+00  1.8270784145341281e+00  1.9118845898675403e+00  2.0000000000000000e+00  2.0000000000000000e+00  1.8718557469071313e+00  1.7484910208515545e+00  1.6341314664104383e+00  1.5319752207496562e+00  1.4439541948401642e+00  1.3707128591779532e+00  1.3117783249331634e+00  1.2658506776015164e+00  1.2311334076527090e+00  1.2056374813416417e+00  1.1874181533969490e+00  1.1747300390180571e+00  1.1661060500214340e+00  1.1603770362672949e+00  1.1566523143851366e+00  1.1542793179228210e+00  1.1527961217146523e+00  1.1518856616225075e+00  1.1513362837087271e+00  1.1510102640001532e+00  1.1508201155462783e+00  1.1507115934412244e+00  1.1506520199676153e+00  1.1506226216847679e+00  1.1506138132325765e+00  1.1506226670744628e+00  1.1506521196692450e+00  1.1507117659925905e+00  1.1508203902546301e+00  1.1510106820347137e+00  1.1513368982285654e+00  1.1518865355753445e+00  1.1527973214989629e+00  1.1542809009025159e+00  1.1566543086474355e+00  1.1603794124764752e+00  1.1661086881187008e+00  1.1747326968063654e+00  1.1874204488096485e+00  1.2056389032710164e+00  1.2311333683789292e+00  1.2658486099966642e+00  1.3117738091132076e+00  1.3707057408621348e+00  1.4439446424750289e+00  1.5319636746153151e+00  1.6341184695444713e+00  1.7484769847224622e+00  1.8718407508477495e+00  2.0000000000000000e+00  2.0000000000000000e+00  1.8360975149121865e+00  1.6782938026922687e+00  1.5319752207496564e+00  1.4012262702006038e+00  1.2885203616130190e+00  1.1946910106056141e+00  1.1191463200244480e+00  1.0602370521833537e+00  1.0156766988388457e+00  9.8292899203322581e-01  9.5951051765219730e-01  9.4318958726949309e-01  9.3208813084931896e-01  9.2470780740942715e-01  9.1990593151145650e-01  9.1684444831066647e-01  9.1492954890160294e-01  9.1375325830198262e-01  9.1304298742914680e-01  9.1262120632928434e-01  9.1237504756463950e-01  9.1223447405812130e-01  9.1215726387738250e-01  9.1211914485415202e-01  9.1210771774479660e-01  9.1211919393660668e-01  9.1215737155038579e-01  9.1223466004917675e-01  9.1237534299696688e-01  9.1262165481502533e-01  9.1304364514087544e-01  9.1375419162223193e-01  9.1493082782243651e-01  9.1684613359176648e-01  9.1990805407204501e-01  9.2471033997092522e-01  9.3209095480212401e-01  9.4319246200777818e-01  9.5951306423045934e-01  9.8293070579197217e-01  1.0156770035193949e+00  1.0602353981769403e+00  1.1191423115528845e+00  1.1946845257459200e+00  1.2885116159602681e+00  1.4012157826190090e+00  1.5319636746153154e+00  1.6782818475932455e+00  1.8360855886325098e+00  2.0000000000000000e+00  2.0000000000000000e+00  1.8053037812835440e+00  1.6178298359167489e+00  1.4439541948401637e+00  1.2885203616130187e+00  1.1544695583559883e+00  1.0428043088251449e+00  9.5283910340286526e-01  8.8263317372267014e-01  8.2948596763173343e-01  7.9039550133510650e-01  7.6241739965077049e-01  7.4290181759726115e-01  7.2961572868845115e-01  7.2077528951921399e-01  7.1501838763889425e-01  7.1134484188400871e-01  7.0904514896930193e-01  7.0763130296504795e-01  7.0677689150340262e-01  7.0626911105890222e-01  7.0597253441639196e-01  7.0580304671284699e-01  7.0570989523918304e-01  7.0566388159957238e-01  7.0565008113502103e-01  7.0566393154012241e-01  7.0571000471307221e-01  7.0580323562193858e-01  7.0597283416606238e-01  7.0626956570266641e-01  7.0677755793803676e-01  7.0763224884121623e-01  7.0904644658466531e-01  7.1134655618089848e-01  7.1502055687493971e-01  7.2077789861904829e-01  7.2961867801433766e-01  7.4290489378460156e-01  7.6242025934559343e-01  7.9039768122244902e-01  8.2948693235238746e-01  8.8263240475912985e-01  9.5283621670063423e-01  1.0427991711130968e+00  1.1544623609015421e+00  1.2885116159602692e+00  1.4439446424750308e+00  1.6178203038685952e+00  1.8052950464080835e+00  2.0000000000000000e+00  2.0000000000000000e+00  1.7796971663125902e+00  1.5675383307240907e+00  1.3707128591779538e+00  1.1946910106056139e+00  1.0428043088251451e+00  9.1620179161187676e-01  8.1412879394653803e-01  7.3441133660569791e-01  6.7401252334692030e-01  6.2954875884618366e-01  5.9769542755507921e-01  5.7545574470213956e-01  5.6030060283319583e-01  5.5020680810314448e-01  5.4362740479446570e-01  5.3942500633382440e-01  5.3679176343254897e-01  5.3517134894252871e-01  5.3419121351812637e-01  5.3360819815842997e-01  5.3326738827339781e-01  5.3307246529170615e-01  5.3296525724376631e-01  5.3291226923875901e-01  5.3289636923762485e-01  5.3291231774872228e-01  5.3296536353243595e-01  5.3307264860142156e-01  5.3326767901438199e-01  5.3360863911558598e-01  5.3419186025908094e-01  5.3517226822500741e-01  5.3679302805130857e-01  5.3942668471105826e-01  5.4362954399521868e-01  5.5020941019288783e-01  5.6030359683822895e-01  5.7545895978840877e-01  5.9769857666064652e-01  6.2955144430687737e-01  6.7401427485061016e-01  7.3441168519094868e-01  8.1412737365937327e-01  9.1619844617251056e-01  1.0427991711130977e+00  1.1946845257459211e+00  1.3707057408621377e+00  1.5675314690149176e+00  1.7796915286576434e+00  2.0000000000000000e+00  2.0000000000000000e+00  1.7591075536379470e+00  1.5270887661295709e+00  1.3117783249331638e+00  1.1191463200244476e+00  9.5283910340286393e-01  8.1412879394653748e-01  7.0221294014470426e-01  6.1473844893786544e-01  5.4840533915610878e-01  4.9952850070760946e-01  4.6448056841757485e-01  4.3998666919667712e-01  4.2327890764527565e-01  4.1213992876934125e-01  4.0487199552597353e-01  4.0022519927219208e-01  3.9731062061897543e-01  3.9551533247821519e-01  3.9442838066152430e-01  3.9378122165193258e-01  3.9340257299804515e-01  3.9318582338209823e-01  3.9306651944035342e-01  3.9300751667168543e-01  3.9298980323332189e-01  3.9300756203062148e-01  3.9306661879251698e-01  3.9318599467163412e-01  3.9340284464533282e-01  3.9378163380178688e-01  3.9442898581735369e-01  3.9551619449022862e-01  3.9731181068334515e-01  4.0022678746763934e-01  4.0487403670471539e-01  4.1214244261137251e-01  4.2328185458275630e-01  4.3998992664781372e-01  4.6448391475840245e-01  4.9953161643575145e-01  5.4840783407945937e-01  6.1473991948241757e-01  7.0221305189814720e-01  8.1412737365937327e-01  9.5283621670063479e-01  1.1191423115528867e+00  1.3117738091132101e+00  1.5270845754316986e+00  1.7591046679133358e+00  2.0000000000000000e+00  2.0000000000000000e+00  1.7430749293434880e+00  1.4955818614676097e+00  1.2658506776015139e+00  1.0602370521833526e+00  8.8263317372266981e-01  7.3441133660569757e-01  6.1473844893786600e-01  5.2112911299300158e-01  4.5008486194495162e-01  3.9769050758366226e-01  3.6008567237732314e-01  3.3377985192474779e-01  3.1581871909069464e-01  3.0383234198829917e-01  2.9600375630034104e-01  2.9099354387416509e-01  2.8784792096212819e-01  2.8590842083692986e-01  2.8473302206990092e-01  2.8403253966336045e-01  2.8362231527543319e-01  2.8338728668393171e-01  2.8325782081054268e-01  2.8319375233189348e-01  2.8317450898938207e-01  2.8319379337092776e-01  2.8325791067579842e-01  2.8338744157903345e-01  2.8362256092750493e-01  2.8403291257225660e-01  2.8473357032763902e-01  2.8590920366689854e-01  2.8784900586540535e-01  2.9099500014718993e-01  2.9600564389282286e-01  3.0383469542257258e-01  3.1582152762558441e-01  3.3378303927351138e-01  3.6008908165818132e-01  3.9769389889835793e-01  4.5008792980901702e-01  5.2113152768103144e-01  6.1473991948241880e-01  7.3441168519094957e-01  8.8263240475913218e-01  1.0602353981769432e+00  1.2658486099966682e+00  1.4955800660368734e+00  1.7430742571205589e+00  2.0000000000000000e+00  2.0000000000000000e+00  1.7309660306291417e+00  1.4717778151864165e+00  1.2311334076527072e+00  1.0156766988388435e+00  8.2948596763173288e-01  6.7401252334691997e-01  5.4840533915610923e-01  4.5008486194495134e-01  3.7540792769959663e-01  3.2028950423620417e-01  2.8069558569988756e-01  2.5297368544322535e-01  2.3402838141107940e-01  2.2137345032988948e-01  2.1310043647058194e-01  2.0780078322751314e-01  2.0447028585606519e-01  2.0241486023408911e-01  2.0116804191683979e-01  2.0042431234616268e-01  1.9998837056875352e-01  1.9973839529334303e-01  1.9960059080734832e-01  1.9953235403046393e-01  1.9951184946130940e-01  1.9953239008255871e-01  1.9960066973004847e-01  1.9973853129254415e-01  1.9998858625609686e-01  2.0042463994178777e-01  2.0116852418353587e-01  2.0241555046664611e-01  2.0447124603505903e-01  2.0780207933383096e-01  2.1310213008821272e-01  2.2137558620611142e-01  2.3403097171987358e-01  2.5297669308582155e-01  2.8069891078296799e-01  3.2029297926524392e-01  3.7541132713689140e-01  4.5008792980901757e-01  5.4840783407946125e-01  6.7401427485061138e-01  8.2948693235239046e-01  1.0156770035193978e+00  1.2311333683789332e+00  1.4717779288682160e+00  1.7309669424343435e+00  2.0000000000000000e+00  2.0000000000000000e+00  1.7220813598665496e+00  1.4543059356344867e+00  1.2056374813416437e+00  9.8292899203322515e-01  7.9039550133510605e-01  6.2954875884618300e-01  4.9952850070760907e-01  3.9769050758366264e-01  3.2028950423620461e-01  2.6311895843358180e-01  2.2201940467172748e-01  1.9322029761165446e-01  1.7352256021849147e-01  1.6035388989814647e-01  1.5173761570556837e-01  1.4621326869128118e-01  1.4273852677317514e-01  1.4059220100704772e-01  1.3928910614034806e-01  1.3851113601866660e-01  1.3805473888856951e-01  1.3779282375999344e-01  1.3764833261389539e-01  1.3757674323953500e-01  1.3755522220653818e-01  1.3757677406539084e-01  1.3764840007325282e-01  1.3779293996701628e-01  1.3805492317072193e-01  1.3851141602892694e-01  1.3928951882759355e-01  1.4059279292362969e-01  1.4273935302783666e-01  1.4621438975539050e-01  1.5173909135513161e-01  1.6035576994495770e-01  1.7352487244451520e-01  1.9322303446244005e-01  2.2202251159331340e-01  2.6312232782812861e-01  3.2029297926524480e-01  3.9769389889835888e-01  4.9953161643575295e-01  6.2955144430687981e-01  7.9039768122245169e-01  9.8293070579197783e-01  1.2056389032710209e+00  1.4543073747847892e+00  1.7220832398741246e+00  2.0000000000000000e+00  2.0000000000000000e+00  1.7157382442647595e+00  1.4418275602014174e+00  1.1874181533969517e+00  9.5951051765219908e-01  7.6241739965077115e-01  5.9769542755507965e-01  4.6448056841757634e-01  3.6008567237732475e-01  2.8069558569988867e-01  2.2201940467172795e-01  1.7980961392772629e-01  1.5021205780425764e-01  1.2995363555208259e-01  1.1640008378242379e-01  1.0752525330680901e-01  1.0183074180465825e-01  9.8246172577238652e-02  9.6030266898188443e-02  9.4683868945120625e-02  9.3879416717464984e-02  9.3407120918112443e-02  9.3135882603254505e-02  9.2986148724266290e-02  9.2911922218988932e-02  9.2889599915955925e-02  9.2911947918669191e-02  9.2986204942444986e-02  9.3135979401905905e-02  9.3407274383772831e-02  9.3879649949501931e-02  9.4684212992133684e-02  9.6030761252096419e-02  9.8246864701861406e-02  1.0183168508968181e-01  1.0752650287251285e-01  1.1640168980200806e-01  1.2995563427513993e-01  1.5021446125709226e-01  1.7981240021072231e-01  2.2202251159331401e-01  2.8069891078296882e-01  3.6008908165818276e-01  4.6448391475840511e-01  5.9769857666064941e-01  7.6242025934559798e-01  9.5951306423046490e-01  1.1874204488096547e+00  1.4418297556495099e+00  1.7157405689958751e+00  2.0000000000000000e+00  2.0000000000000000e+00  1.7113249790497300e+00  1.4331424422711483e+00  1.1747300390180588e+00  9.4318958726949464e-01  7.4290181759726304e-01  5.7545574470214078e-01  4.3998666919667884e-01  3.3377985192474996e-01  2.5297368544322746e-01  1.9322029761165554e-01  1.5021205780425817e-01  1.2003718603237591e-01  9.9371121693721490e-02  8.5536172350607065e-02  7.6471232784390913e-02  7.0650893410682813e-02  6.6984652681944507e-02  6.4716714333440298e-02  6.3337754464221560e-02  6.2513280942161062e-02  6.2028902300388843e-02  6.1750543580036732e-02  6.1596788203096983e-02  6.1520531929654287e-02  6.1497591488639376e-02  6.1520552849977636e-02  6.1596833943200945e-02  6.1750622289037570e-02  6.2029027028966968e-02  6.2513470487511588e-02  6.3338034219965811e-02  6.4717116858834176e-02  6.6985217603875116e-02  7.0651666200625435e-02  7.6472261961329294e-02  8.5537504809901535e-02  9.9372796199774918e-02  1.2003922544466808e-01  1.5021446125709301e-01  1.9322303446244149e-01  2.5297669308582316e-01  3.3378303927351349e-01  4.3998992664781716e-01  5.7545895978841377e-01  7.4290489378460811e-01  9.4319246200778539e-01  1.1747326968063740e+00  1.4331449193540704e+00  1.7113273583078732e+00  2.0000000000000000e+00  2.0000000000000000e+00  1.7083281590826320e+00  1.4272426298937582e+00  1.1661060500214342e+00  9.3208813084931952e-01  7.2961572868845326e-01  5.6030060283319683e-01  4.2327890764527903e-01  3.1581871909069753e-01  2.3402838141108182e-01  1.7352256021849283e-01  1.2995363555208342e-01  9.9371121693721837e-02  7.8415585010836134e-02  6.4379653154073055e-02  5.5178135922509364e-02  4.9266866950400161e-02  4.5541258700355934e-02  4.3235276069328601e-02  4.1832370420744190e-02  4.0993089839916654e-02  4.0499726095354502e-02  4.0216045137503285e-02  4.0059270095728239e-02  3.9981484239197652e-02  3.9958076866429090e-02  3.9981500885625208e-02  4.0059306468941111e-02  4.0216107678791704e-02  4.0499825133864222e-02  4.0993240288963409e-02  4.1832592509632865e-02  4.3235595905952509e-02  4.5541708384809955e-02  4.9267483902448228e-02  5.5178961079994586e-02  6.4380727785902897e-02  7.8416946101115964e-02  9.9372796199775404e-02  1.2995563427514142e-01  1.7352487244451736e-01  2.3403097171987594e-01  3.1582152762558752e-01  4.2328185458276074e-01  5.6030359683823505e-01  7.2961867801434466e-01  9.3209095480213333e-01  1.1661086881187106e+00  1.4272450464046644e+00  1.7083303417273850e+00  2.0000000000000000e+00  2.0000000000000000e+00  1.7063392180770272e+00  1.4233255574708676e+00  1.1603770362672943e+00  9.2470780740942671e-01  7.2077528951921455e-01  5.5020680810314559e-01  4.1213992876934263e-01  3.0383234198830106e-01  2.2137345032989084e-01  1.6035388989814739e-01  1.1640008378242445e-01  8.5536172350607301e-02  6.4379653154073097e-02  5.0203351062073590e-02  4.0905871928824500e-02  3.4930327246051801e-02  3.1162499025393482e-02  2.8829297122106183e-02  2.7409156539892413e-02  2.6559155884677717e-02  2.6059249992104096e-02  2.5771673076670568e-02  2.5612677094164024e-02  2.5533762048494967e-02  2.5510009108596739e-02  2.5533775008058476e-02  2.5612705390620459e-02  2.5771721683060685e-02  2.6059326890202562e-02  2.6559272619093383e-02  2.7409328819600332e-02  2.8829545325267901e-02  3.1162848408543449e-02  3.4930807613894797e-02  4.0906516508337008e-02  5.0204194371355489e-02  6.4380727785903244e-02  8.5537504809902340e-02  1.1640168980200959e-01  1.6035576994496001e-01  2.2137558620611442e-01  3.0383469542257635e-01  4.1214244261137761e-01  5.5020941019289493e-01  7.2077789861905750e-01  9.2471033997093566e-01  1.1603794124764870e+00  1.4233277051246129e+00  1.7063410733919240e+00  2.0000000000000000e+00  2.0000000000000000e+00  1.7050473204054890e+00  1.4207803146502223e+00  1.1566523143851357e+00  9.1990593151145506e-01  7.1501838763889369e-01  5.4362740479446547e-01  4.0487199552597386e-01  2.9600375630034170e-01  2.1310043647058258e-01  1.5173761570556890e-01  1.0752525330680943e-01  7.6471232784391135e-02  5.5178135922509433e-02  4.0905871928824486e-02  3.1542388895334242e-02  2.5522361429225985e-02  2.1725133091890982e-02  1.9372859441706670e-02  1.7940568563067551e-02  1.7082964704042889e-02  1.6578391555100627e-02  1.6288019849005700e-02  1.6127422860692874e-02  1.6047690693722957e-02  1.6023687041127926e-02  1.6047700572953138e-02  1.6127444413025889e-02  1.6288056827451981e-02  1.6578449986090326e-02  1.7083053313961569e-02  1.7940699252494887e-02  1.9373047707396264e-02  2.1725398257272988e-02  2.5522726510182843e-02  3.1542879913608372e-02  4.0906516508337182e-02  5.5178961079995051e-02  7.6472261961330168e-02  1.0752650287251435e-01  1.5173909135513378e-01  2.1310213008821549e-01  2.9600564389282674e-01  4.0487403670472094e-01  5.4362954399522545e-01  7.1502055687494837e-01  9.1990805407205523e-01  1.1566543086474466e+00  1.4207820971676559e+00  1.7050488076638799e+00  2.0000000000000000e+00  2.0000000000000000e+00  1.7042250241699017e+00  1.4191596646718807e+00  1.1542793179228192e+00  9.1684444831066325e-01  7.1134484188400837e-01  5.3942500633382429e-01  4.0022519927219208e-01  2.9099354387416521e-01  2.0780078322751369e-01  1.4621326869128137e-01  1.0183074180465856e-01  7.0650893410683036e-02  4.9266866950400202e