<?xml version="1.0"?>
<VTKFile type="UnstructuredGrid"  version="0.1"  >
<UnstructuredGrid>
<Piece  NumberOfPoints="2601" NumberOfCells="5000">
<Points>
<DataArray  type="Float64"  NumberOfComponents="3"  format="ascii">0 0 0  0.02 0 0  0.04 0 0  0.06 0 0  0.08 0 0  0.1 0 0  0.12 0 0  0.14 0 0  0.16 0 0  0.18 0 0  0.2 0 0  0.22 0 0  0.24 0 0  0.26 0 0  0.28 0 0  0.3 0 0  0.32 0 0  0.34 0 0  0.36 0 0  0.38 0 0  0.4 0 0  0.42 0 0  0.44 0 0  0.46 0 0  0.48 0 0  0.5 0 0  0.52 0 0  0.54 0 0  0.5600000000000001 0 0  0.58 0 0  0.6 0 0  0.62 0 0  0.64 0 0  0.66 0 0  0.68 0 0  0.7 0 0  0.72 0 0  0.74 0 0  0.76 0 0  0.78 0 0  0.8 0 0  0.82 0 0  0.84 0 0  0.86 0 0  0.88 0 0  0.9 0 0  0.92 0 0  0.9399999999999999 0 0  0.96 0 0  0.98 0 0  1 0 0  0 0.02 0  0.02 0.02 0  0.04 0.02 0  0.06 0.02 0  0.08 0.02 0  0.1 0.02 0  0.12 0.02 0  0.14 0.02 0  0.16 0.02 0  0.18 0.02 0  0.2 0.02 0  0.22 0.02 0  0.24 0.02 0  0.26 0.02 0  0.28 0.02 0  0.3 0.02 0  0.32 0.02 0  0.34 0.02 0  0.36 0.02 0  0.38 0.02 0  0.4 0.02 0  0.42 0.02 0  0.44 0.02 0  0.46 0.02 0  0.48 0.02 0  0.5 0.02 0  0.52 0.02 0  0.54 0.02 0  0.5600000000000001 0.02 0  0.58 0.02 0  0.6 0.02 0  0.62 0.02 0  0.64 0.02 0  0.66 0.02 0  0.68 0.02 0  0.7 0.02 0  0.72 0.02 0  0.74 0.02 0  0.76 0.02 0  0.78 0.02 0  0.8 0.02 0  0.82 0.02 0  0.84 0.02 0  0.86 0.02 0  0.88 0.02 0  0.9 0.02 0  0.92 0.02 0  0.9399999999999999 0.02 0  0.96 0.02 0  0.98 0.02 0  1 0.02 0  0 0.04 0  0.02 0.04 0  0.04 0.04 0  0.06 0.04 0  0.08 0.04 0  0.1 0.04 0  0.12 0.04 0  0.14 0.04 0  0.16 0.04 0  0.18 0.04 0  0.2 0.04 0  0.22 0.04 0  0.24 0.04 0  0.26 0.04 0  0.28 0.04 0  0.3 0.04 0  0.32 0.04 0  0.34 0.04 0  0.36 0.04 0  0.38 0.04 0  0.4 0.04 0  0.42 0.04 0  0.44 0.04 0  0.46 0.04 0  0.48 0.04 0  0.5 0.04 0  0.52 0.04 0  0.54 0.04 0  0.5600000000000001 0.04 0  0.58 0.04 0  0.6 0.04 0  0.62 0.04 0  0.64 0.04 0  0.66 0.04 0  0.68 0.04 0  0.7 0.04 0  0.72 0.04 0  0.74 0.04 0  0.76 0.04 0  0.78 0.04 0  0.8 0.04 0  0.82 0.04 0  0.84 0.04 0  0.86 0.04 0  0.88 0.04 0  0.9 0.04 0  0.92 0.04 0  0.9399999999999999 0.04 0  0.96 0.04 0  0.98 0.04 0  1 0.04 0  0 0.06 0  0.02 0.06 0  0.04 0.06 0  0.06 0.06 0  0.08 0.06 0  0.1 0.06 0  0.12 0.06 0  0.14 0.06 0  0.16 0.06 0  0.18 0.06 0  0.2 0.06 0  0.22 0.06 0  0.24 0.06 0  0.26 0.06 0  0.28 0.06 0  0.3 0.06 0  0.32 0.06 0  0.34 0.06 0  0.36 0.06 0  0.38 0.06 0  0.4 0.06 0  0.42 0.06 0  0.44 0.06 0  0.46 0.06 0  0.48 0.06 0  0.5 0.06 0  0.52 0.06 0  0.54 0.06 0  0.5600000000000001 0.06 0  0.58 0.06 0  0.6 0.06 0  0.62 0.06 0  0.64 0.06 0  0.66 0.06 0  0.68 0.06 0  0.7 0.06 0  0.72 0.06 0  0.74 0.06 0  0.76 0.06 0  0.78 0.06 0  0.8 0.06 0  0.82 0.06 0  0.84 0.06 0  0.86 0.06 0  0.88 0.06 0  0.9 0.06 0  0.92 0.06 0  0.9399999999999999 0.06 0  0.96 0.06 0  0.98 0.06 0  1 0.06 0  0 0.08 0  0.02 0.08 0  0.04 0.08 0  0.06 0.08 0  0.08 0.08 0  0.1 0.08 0  0.12 0.08 0  0.14 0.08 0  0.16 0.08 0  0.18 0.08 0  0.2 0.08 0  0.22 0.08 0  0.24 0.08 0  0.26 0.08 0  0.28 0.08 0  0.3 0.08 0  0.32 0.08 0  0.34 0.08 0  0.36 0.08 0  0.38 0.08 0  0.4 0.08 0  0.42 0.08 0  0.44 0.08 0  0.46 0.08 0  0.48 0.08 0  0.5 0.08 0  0.52 0.08 0  0.54 0.08 0  0.5600000000000001 0.08 0  0.58 0.08 0  0.6 0.08 0  0.62 0.08 0  0.64 0.08 0  0.66 0.08 0  0.68 0.08 0  0.7 0.08 0  0.72 0.08 0  0.74 0.08 0  0.76 0.08 0  0.78 0.08 0  0.8 0.08 0  0.82 0.08 0  0.84 0.08 0  0.86 0.08 0  0.88 0.08 0  0.9 0.08 0  0.92 0.08 0  0.9399999999999999 0.08 0  0.96 0.08 0  0.98 0.08 0  1 0.08 0  0 0.1 0  0.02 0.1 0  0.04 0.1 0  0.06 0.1 0  0.08 0.1 0  0.1 0.1 0  0.12 0.1 0  0.14 0.1 0  0.16 0.1 0  0.18 0.1 0  0.2 0.1 0  0.22 0.1 0  0.24 0.1 0  0.26 0.1 0  0.28 0.1 0  0.3 0.1 0  0.32 0.1 0  0.34 0.1 0  0.36 0.1 0  0.38 0.1 0  0.4 0.1 0  0.42 0.1 0  0.44 0.1 0  0.46 0.1 0  0.48 0.1 0  0.5 0.1 0  0.52 0.1 0  0.54 0.1 0  0.5600000000000001 0.1 0  0.58 0.1 0  0.6 0.1 0  0.62 0.1 0  0.64 0.1 0  0.66 0.1 0  0.68 0.1 0  0.7 0.1 0  0.72 0.1 0  0.74 0.1 0  0.76 0.1 0  0.78 0.1 0  0.8 0.1 0  0.82 0.1 0  0.84 0.1 0  0.86 0.1 0  0.88 0.1 0  0.9 0.1 0  0.92 0.1 0  0.9399999999999999 0.1 0  0.96 0.1 0  0.98 0.1 0  1 0.1 0  0 0.12 0  0.02 0.12 0  0.04 0.12 0  0.06 0.12 0  0.08 0.12 0  0.1 0.12 0  0.12 0.12 0  0.14 0.12 0  0.16 0.12 0  0.18 0.12 0  0.2 0.12 0  0.22 0.12 0  0.24 0.12 0  0.26 0.12 0  0.28 0.12 0  0.3 0.12 0  0.32 0.12 0  0.34 0.12 0  0.36 0.12 0  0.38 0.12 0  0.4 0.12 0  0.42 0.12 0  0.44 0.12 0  0.46 0.12 0  0.48 0.12 0  0.5 0.12 0  0.52 0.12 0  0.54 0.12 0  0.5600000000000001 0.12 0  0.58 0.12 0  0.6 0.12 0  0.62 0.12 0  0.64 0.12 0  0.66 0.12 0  0.68 0.12 0  0.7 0.12 0  0.72 0.12 0  0.74 0.12 0  0.76 0.12 0  0.78 0.12 0  0.8 0.12 0  0.82 0.12 0  0.84 0.12 0  0.86 0.12 0  0.88 0.12 0  0.9 0.12 0  0.92 0.12 0  0.9399999999999999 0.12 0  0.96 0.12 0  0.98 0.12 0  1 0.12 0  0 0.14 0  0.02 0.14 0  0.04 0.14 0  0.06 0.14 0  0.08 0.14 0  0.1 0.14 0  0.12 0.14 0  0.14 0.14 0  0.16 0.14 0  0.18 0.14 0  0.2 0.14 0  0.22 0.14 0  0.24 0.14 0  0.26 0.14 0  0.28 0.14 0  0.3 0.14 0  0.32 0.14 0  0.34 0.14 0  0.36 0.14 0  0.38 0.14 0  0.4 0.14 0  0.42 0.14 0  0.44 0.14 0  0.46 0.14 0  0.48 0.14 0  0.5 0.14 0  0.52 0.14 0  0.54 0.14 0  0.5600000000000001 0.14 0  0.58 0.14 0  0.6 0.14 0  0.62 0.14 0  0.64 0.14 0  0.66 0.14 0  0.68 0.14 0  0.7 0.14 0  0.72 0.14 0  0.74 0.14 0  0.76 0.14 0  0.78 0.14 0  0.8 0.14 0  0.82 0.14 0  0.84 0.14 0  0.86 0.14 0  0.88 0.14 0  0.9 0.14 0  0.92 0.14 0  0.9399999999999999 0.14 0  0.96 0.14 0  0.98 0.14 0  1 0.14 0  0 0.16 0  0.02 0.16 0  0.04 0.16 0  0.06 0.16 0  0.08 0.16 0  0.1 0.16 0  0.12 0.16 0  0.14 0.16 0  0.16 0.16 0  0.18 0.16 0  0.2 0.16 0  0.22 0.16 0  0.24 0.16 0  0.26 0.16 0  0.28 0.16 0  0.3 0.16 0  0.32 0.16 0  0.34 0.16 0  0.36 0.16 0  0.38 0.16 0  0.4 0.16 0  0.42 0.16 0  0.44 0.16 0  0.46 0.16 0  0.48 0.16 0  0.5 0.16 0  0.52 0.16 0  0.54 0.16 0  0.5600000000000001 0.16 0  0.58 0.16 0  0.6 0.16 0  0.62 0.16 0  0.64 0.16 0  0.66 0.16 0  0.68 0.16 0  0.7 0.16 0  0.72 0.16 0  0.74 0.16 0  0.76 0.16 0  0.78 0.16 0  0.8 0.16 0  0.82 0.16 0  0.84 0.16 0  0.86 0.16 0  0.88 0.16 0  0.9 0.16 0  0.92 0.16 0  0.9399999999999999 0.16 0  0.96 0.16 0  0.98 0.16 0  1 0.16 0  0 0.18 0  0.02 0.18 0  0.04 0.18 0  0.06 0.18 0  0.08 0.18 0  0.1 0.18 0  0.12 0.18 0  0.14 0.18 0  0.16 0.18 0  0.18 0.18 0  0.2 0.18 0  0.22 0.18 0  0.24 0.18 0  0.26 0.18 0  0.28 0.18 0  0.3 0.18 0  0.32 0.18 0  0.34 0.18 0  0.36 0.18 0  0.38 0.18 0  0.4 0.18 0  0.42 0.18 0  0.44 0.18 0  0.46 0.18 0  0.48 0.18 0  0.5 0.18 0  0.52 0.18 0  0.54 0.18 0  0.5600000000000001 0.18 0  0.58 0.18 0  0.6 0.18 0  0.62 0.18 0  0.64 0.18 0  0.66 0.18 0  0.68 0.18 0  0.7 0.18 0  0.72 0.18 0  0.74 0.18 0  0.76 0.18 0  0.78 0.18 0  0.8 0.18 0  0.82 0.18 0  0.84 0.18 0  0.86 0.18 0  0.88 0.18 0  0.9 0.18 0  0.92 0.18 0  0.9399999999999999 0.18 0  0.96 0.18 0  0.98 0.18 0  1 0.18 0  0 0.2 0  0.02 0.2 0  0.04 0.2 0  0.06 0.2 0  0.08 0.2 0  0.1 0.2 0  0.12 0.2 0  0.14 0.2 0  0.16 0.2 0  0.18 0.2 0  0.2 0.2 0  0.22 0.2 0  0.24 0.2 0  0.26 0.2 0  0.28 0.2 0  0.3 0.2 0  0.32 0.2 0  0.34 0.2 0  0.36 0.2 0  0.38 0.2 0  0.4 0.2 0  0.42 0.2 0  0.44 0.2 0  0.46 0.2 0  0.48 0.2 0  0.5 0.2 0  0.52 0.2 0  0.54 0.2 0  0.5600000000000001 0.2 0  0.58 0.2 0  0.6 0.2 0  0.62 0.2 0  0.64 0.2 0  0.66 0.2 0  0.68 0.2 0  0.7 0.2 0  0.72 0.2 0  0.74 0.2 0  0.76 0.2 0  0.78 0.2 0  0.8 0.2 0  0.82 0.2 0  0.84 0.2 0  0.86 0.2 0  0.88 0.2 0  0.9 0.2 0  0.92 0.2 0  0.9399999999999999 0.2 0  0.96 0.2 0  0.98 0.2 0  1 0.2 0  0 0.22 0  0.02 0.22 0  0.04 0.22 0  0.06 0.22 0  0.08 0.22 0  0.1 0.22 0  0.12 0.22 0  0.14 0.22 0  0.16 0.22 0  0.18 0.22 0  0.2 0.22 0  0.22 0.22 0  0.24 0.22 0  0.26 0.22 0  0.28 0.22 0  0.3 0.22 0  0.32 0.22 0  0.34 0.22 0  0.36 0.22 0  0.38 0.22 0  0.4 0.22 0  0.42 0.22 0  0.44 0.22 0  0.46 0.22 0  0.48 0.22 0  0.5 0.22 0  0.52 0.22 0  0.54 0.22 0  0.5600000000000001 0.22 0  0.58 0.22 0  0.6 0.22 0  0.62 0.22 0  0.64 0.22 0  0.66 0.22 0  0.68 0.22 0  0.7 0.22 0  0.72 0.22 0  0.74 0.22 0  0.76 0.22 0  0.78 0.22 0  0.8 0.22 0  0.82 0.22 0  0.84 0.22 0  0.86 0.22 0  0.88 0.22 0  0.9 0.22 0  0.92 0.22 0  0.9399999999999999 0.22 0  0.96 0.22 0  0.98 0.22 0  1 0.22 0  0 0.24 0  0.02 0.24 0  0.04 0.24 0  0.06 0.24 0  0.08 0.24 0  0.1 0.24 0  0.12 0.24 0  0.14 0.24 0  0.16 0.24 0  0.18 0.24 0  0.2 0.24 0  0.22 0.24 0  0.24 0.24 0  0.26 0.24 0  0.28 0.24 0  0.3 0.24 0  0.32 0.24 0  0.34 0.24 0  0.36 0.24 0  0.38 0.24 0  0.4 0.24 0  0.42 0.24 0  0.44 0.24 0  0.46 0.24 0  0.48 0.24 0  0.5 0.24 0  0.52 0.24 0  0.54 0.24 0  0.5600000000000001 0.24 0  0.58 0.24 0  0.6 0.24 0  0.62 0.24 0  0.64 0.24 0  0.66 0.24 0  0.68 0.24 0  0.7 0.24 0  0.72 0.24 0  0.74 0.24 0  0.76 0.24 0  0.78 0.24 0  0.8 0.24 0  0.82 0.24 0  0.84 0.24 0  0.86 0.24 0  0.88 0.24 0  0.9 0.24 0  0.92 0.24 0  0.9399999999999999 0.24 0  0.96 0.24 0  0.98 0.24 0  1 0.24 0  0 0.26 0  0.02 0.26 0  0.04 0.26 0  0.06 0.26 0  0.08 0.26 0  0.1 0.26 0  0.12 0.26 0  0.14 0.26 0  0.16 0.26 0  0.18 0.26 0  0.2 0.26 0  0.22 0.26 0  0.24 0.26 0  0.26 0.26 0  0.28 0.26 0  0.3 0.26 0  0.32 0.26 0  0.34 0.26 0  0.36 0.26 0  0.38 0.26 0  0.4 0.26 0  0.42 0.26 0  0.44 0.26 0  0.46 0.26 0  0.48 0.26 0  0.5 0.26 0  0.52 0.26 0  0.54 0.26 0  0.5600000000000001 0.26 0  0.58 0.26 0  0.6 0.26 0  0.62 0.26 0  0.64 0.26 0  0.66 0.26 0  0.68 0.26 0  0.7 0.26 0  0.72 0.26 0  0.74 0.26 0  0.76 0.26 0  0.78 0.26 0  0.8 0.26 0  0.82 0.26 0  0.84 0.26 0  0.86 0.26 0  0.88 0.26 0  0.9 0.26 0  0.92 0.26 0  0.9399999999999999 0.26 0  0.96 0.26 0  0.98 0.26 0  1 0.26 0  0 0.28 0  0.02 0.28 0  0.04 0.28 0  0.06 0.28 0  0.08 0.28 0  0.1 0.28 0  0.12 0.28 0  0.14 0.28 0  0.16 0.28 0  0.18 0.28 0  0.2 0.28 0  0.22 0.28 0  0.24 0.28 0  0.26 0.28 0  0.28 0.28 0  0.3 0.28 0  0.32 0.28 0  0.34 0.28 0  0.36 0.28 0  0.38 0.28 0  0.4 0.28 0  0.42 0.28 0  0.44 0.28 0  0.46 0.28 0  0.48 0.28 0  0.5 0.28 0  0.52 0.28 0  0.54 0.28 0  0.5600000000000001 0.28 0  0.58 0.28 0  0.6 0.28 0  0.62 0.28 0  0.64 0.28 0  0.66 0.28 0  0.68 0.28 0  0.7 0.28 0  0.72 0.28 0  0.74 0.28 0  0.76 0.28 0  0.78 0.28 0  0.8 0.28 0  0.82 0.28 0  0.84 0.28 0  0.86 0.28
[...]
<PointData  Scalars="f_12"> 
<DataArray  type="Float64"  Name="f_12"  format="ascii">2.0000000000000000e+00  2.0000000000000000e+00  2.0000000000000000e+00  2.0000000000000000e+00  2.0000000000000000e+00  2.0000000000000000e+00  2.0000000000000000e+00  2.0000000000000000e+00  2.0000000000000000e+00  2.0000000000000000e+00  2.0000000000000000e+00  2.0000000000000000e+00  2.0000000000000000e+00  2.0000000000000000e+00  2.0000000000000000e+00  2.0000000000000000e+00  2.0000000000000000e+00  2.0000000000000000e+00  2.0000000000000000e+00  2.0000000000000000e+00  2.0000000000000000e+00  2.0000000000000000e+00  2.0000000000000000e+00  2.0000000000000000e+00  2.0000000000000000e+00  2.0000000000000000e+00  2.0000000000000000e+00  2.0000000000000000e+00  2.0000000000000000e+00  2.0000000000000000e+00  2.0000000000000000e+00  2.0000000000000000e+00  2.0000000000000000e+00  2.0000000000000000e+00  2.0000000000000000e+00  2.0000000000000000e+00  2.0000000000000000e+00  2.0000000000000000e+00  2.0000000000000000e+00  2.0000000000000000e+00  2.0000000000000000e+00  2.0000000000000000e+00  2.0000000000000000e+00  2.0000000000000000e+00  2.0000000000000000e+00  2.0000000000000000e+00  2.0000000000000000e+00  2.0000000000000000e+00  2.0000000000000000e+00  2.0000000000000000e+00  2.0000000000000000e+00  2.0000000000000000e+00  1.9849052090721653e+00  1.9699917918690899e+00  1.9554371527487493e+00  1.9414041348897435e+00  1.9280369729660087e+00  1.9154568789388973e+00  1.9037589953719694e+00  1.8930108098330931e+00  1.8832520207929899e+00  1.8744957426235258e+00  1.8667308521408512e+00  1.8599252194449043e+00  1.8540295348637783e+00  1.8489814412064283e+00  1.8447097027805988e+00  1.8411381840630219e+00  1.8381894646346231e+00  1.8357879759262825e+00  1.8338626030026797e+00  1.8323487458131136e+00  1.8311898753793372e+00  1.8303386492038016e+00  1.8297576661712955e+00  1.8294199449865676e+00  1.8293092032194755e+00  1.8294199983629635e+00  1.8297577703070740e+00  1.8303387987967246e+00  1.8311900623239434e+00  1.8323489590678377e+00  1.8338628284896765e+00  1.8357881965187781e+00  1.8381896602871528e+00  1.8411383321329038e+00  1.8447097785744648e+00  1.8489814187644467e+00  1.8540293879678544e+00  1.8599249228084291e+00  1.8667303827092212e+00  1.8744950808897787e+00  1.8832511520138790e+00  1.8930097250181421e+00  1.9037576919087620e+00  1.9154553607000706e+00  1.9280352496803268e+00  1.9414022203186883e+00  1.9554350602242132e+00  1.9699895210590239e+00  1.9849026910482055e+00  2.0000000000000000e+00  2.0000000000000000e+00  1.9699917918690892e+00  1.9403456066719611e+00  1.9114124667983048e+00  1.8835161123264597e+00  1.8569432431806729e+00  1.8319347947233211e+00  1.8086798903686594e+00  1.7873126912080983e+00  1.7679121288012742e+00  1.7505042987917243e+00  1.7350671230819703e+00  1.7215367695340602e+00  1.7098152566174671e+00  1.6997786652046016e+00  1.6912854238903574e+00  1.6841842164963139e+00  1.6783211671442058e+00  1.6735460753642282e+00  1.6697175883112054e+00  1.6667072989032476e+00  1.6644028402590718e+00  1.6627101040806047e+00  1.6615547424188355e+00  1.6608831197695411e+00  1.6606628686093852e+00  1.6608831703644236e+00  1.6615548400911040e+00  1.6627102418179522e+00  1.6644030076168270e+00  1.6667074821374854e+00  1.6697177706212436e+00  1.6735462372829495e+00  1.6783212871052937e+00  1.6841842715892941e+00  1.6912853907893821e+00  1.6997785212281258e+00  1.7098149808477701e+00  1.7215363439024691e+00  1.7350665333118245e+00  1.7505035350890141e+00  1.7679111861927246e+00  1.7873115694443804e+00  1.8086785933280747e+00  1.8319333292528184e+00  1.8569416172678785e+00  1.8835143323633903e+00  1.9114105334946425e+00  1.9403435100718691e+00  1.9699895210590226e+00  2.0000000000000000e+00  2.0000000000000000e+00  1.9554371527487482e+00  1.9114124667983035e+00  1.8684464010858337e+00  1.8270196030495844e+00  1.7875577486827487e+00  1.7504185819411480e+00  1.7158829376697093e+00  1.6841500634844635e+00  1.6553372201329404e+00  1.6294832309380904e+00  1.6065553986094629e+00  1.5864590313282556e+00  1.5690487285696231e+00  1.5541405692610140e+00  1.5415244103170735e+00  1.5309756255976950e+00  1.5222657736332479e+00  1.5151718561585301e+00  1.5094839995563731e+00  1.5050115423077544e+00  1.5015876326171131e+00  1.4990725254194839e+00  1.4973558152079776e+00  1.4963578523135539e+00  1.4960305697782734e+00  1.4963579018144335e+00  1.4973559099940013e+00  1.4990726571495361e+00  1.5015877890215947e+00  1.5050117075201728e+00  1.5094841546120823e+00  1.5151719796872503e+00  1.5222658427553257e+00  1.5309756170076019e+00  1.5415243015047893e+00  1.5541403397875733e+00  1.5690483612833142e+00  1.5864585133891120e+00  1.6065547221866932e+00  1.6294823934604630e+00  1.6553362240048144e+00  1.6841489152244782e+00  1.7158816464754865e+00  1.7504171577201069e+00  1.7875561996097058e+00  1.8270179327457365e+00  1.8684446057384076e+00  1.9114105334946427e+00  1.9554350602242148e+00  2.0000000000000000e+00  2.0000000000000000e+00  1.9414041348897422e+00  1.8835161123264559e+00  1.8270196030495844e+00  1.7725464215537687e+00  1.7206561493785888e+00  1.6718191005242113e+00  1.6264045207813778e+00  1.5846744353102915e+00  1.5467831174253421e+00  1.5127817463094837e+00  1.4826274900022354e+00  1.4561960182138303e+00  1.4332963292278209e+00  1.4136867646236453e+00  1.3970911713133460e+00  1.3832143304766533e+00  1.3717559807856836e+00  1.3624229914038652e+00  1.3549394636165326e+00  1.3490547383343203e+00  1.3445494458245779e+00  1.3412398458286179e+00  1.3389807683686537e+00  1.3376674803455479e+00  1.3372367761870112e+00  1.3376675302380210e+00  1.3389808634332090e+00  1.3412399767611805e+00  1.3445495990264702e+00  1.3490548963802651e+00  1.3549396059300822e+00  1.3624230951592728e+00  1.3717560220335883e+00  1.3832142854589224e+00  1.3970910178942013e+00  1.4136864837259580e+00  1.4332959061326884e+00  1.4561954435655473e+00  1.4826267603654399e+00  1.5127808641530984e+00  1.5467820904574419e+00  1.5846732751529409e+00  1.6264032410451157e+00  1.6718177144083057e+00  1.7206546669832199e+00  1.7725448471611505e+00  1.8270179327457385e+00  1.8835143323633936e+00  1.9414022203186896e+00  2.0000000000000000e+00  2.0000000000000000e+00  1.9280369729660083e+00  1.8569432431806729e+00  1.7875577486827485e+00  1.7206561493785886e+00  1.6569254669009454e+00  1.5969431775286671e+00  1.5411627250604052e+00  1.4899059628010276e+00  1.4433624921345920e+00  1.4015953681613631e+00  1.3645522363970590e+00  1.3320806800688956e+00  1.3039464097471070e+00  1.2798529138335859e+00  1.2594612933206095e+00  1.2424092003301663e+00  1.2283280546400779e+00  1.2168579920686720e+00  1.2076602725553356e+00  1.2004271191679023e+00  1.1948891545529761e+00  1.1908207386319491e+00  1.1880435877316122e+00  1.1864290736326735e+00  1.1858995682113669e+00  1.1864291251382226e+00  1.1880436857000622e+00  1.1908208731421890e+00  1.1948893111493251e+00  1.2004272794095041e+00  1.2076604147976082e+00  1.2168580924917798e+00  1.2283280885149628e+00  1.2424091434774007e+00  1.2594611236760684e+00  1.2798526129944841e+00  1.3039459643406117e+00  1.3320800827713717e+00  1.3645514864413117e+00  1.4015944712048234e+00  1.4433614594216231e+00  1.4899048096307268e+00  1.5411614686572599e+00  1.5969418344960262e+00  1.6569240505078573e+00  1.7206546669832223e+00  1.7875561996097096e+00  1.8569416172678830e+00  1.9280352496803277e+00  2.0000000000000000e+00  2.0000000000000000e+00  1.9154568789388982e+00  1.8319347947233215e+00  1.7504185819411495e+00  1.6718191005242120e+00  1.5969431775286680e+00  1.5264690637940428e+00  1.4609294221033198e+00  1.4007024450387882e+00  1.3460110653855681e+00  1.2969296389496929e+00  1.2533970027430619e+00  1.2152344775634796e+00  1.1821672102768312e+00  1.1538472351919584e+00  1.1298767565471388e+00  1.1098303837982733e+00  1.0932753499053680e+00  1.0797890707316602e+00  1.0689737250251734e+00  1.0604678200540349e+00  1.0539549372149044e+00  1.0491700131908601e+00  1.0459036020613748e+00  1.0440045854272948e+00  1.0433817592869732e+00  1.0440046394558489e+00  1.0459037049220457e+00  1.0491701546664758e+00  1.0539551024345302e+00  1.0604679900769487e+00  1.0689738776679578e+00  1.0797891816522260e+00  1.0932753939322710e+00  1.1098303364572772e+00  1.1298765956945453e+00  1.1538469426231015e+00  1.1821667731466330e+00  1.2152338894427468e+00  1.2533962641455085e+00  1.2969287572037798e+00  1.3460100537901547e+00  1.4007013213258270e+00  1.4609282063232432e+00  1.5264677758272245e+00  1.5969418344960282e+00  1.6718177144083082e+00  1.7504171577201131e+00  1.8319333292528244e+00  1.9154553607000735e+00  2.0000000000000000e+00  2.0000000000000000e+00  1.9037589953719698e+00  1.8086798903686605e+00  1.7158829376697129e+00  1.6264045207813769e+00  1.5411627250604047e+00  1.4609294221033200e+00  1.3863109140996799e+00  1.3177378190070999e+00  1.2554641556009341e+00  1.1995749249821339e+00  1.1500009430159814e+00  1.1065392983838231e+00  1.0688776130574158e+00  1.0366202633901571e+00  1.0093148588482481e+00  9.8647753594969989e-01  9.6761596387343374e-01  9.5224933067365491e-01  9.3992494420785766e-01  9.3023140656762937e-01  9.2280858154233025e-01  9.1735475817645118e-01  9.1363151584686952e-01  9.1146682115860445e-01  9.1075684360575504e-01  9.1146687827966988e-01  9.1363162489060601e-01  9.1735490892042393e-01  9.2280875910446702e-01  9.3023159198677252e-01  9.3992511526719902e-01  9.5224946298177804e-01  9.6761603219275671e-01  9.8647751572615194e-01  1.0093147278541288e+00  1.0366200033514195e+00  1.0688772111054932e+00  1.1065387481589459e+00  1.1500002452603206e+00  1.1995740874997654e+00  1.2554631925264250e+00  1.3177367494083776e+00  1.3863097600328278e+00  1.4609282063232436e+00  1.5411614686572606e+00  1.6264032410451206e+00  1.7158816464754922e+00  1.8086785933280802e+00  1.9037576919087640e+00  2.0000000000000000e+00  2.0000000000000000e+00  1.8930108098330916e+00  1.7873126912080997e+00  1.6841500634844642e+00  1.5846744353102915e+00  1.4899059628010289e+00  1.4007024450387882e+00  1.3177378190071005e+00  1.2414909106984138e+00  1.1722443984805271e+00  1.1100932097999026e+00  1.0549609706113301e+00  1.0066227051280132e+00  9.6473176337895672e-01  9.2884893276667357e-01  8.9847184322386753e-01  8.7306306411392831e-01  8.5207566665276313e-01  8.3497543870715851e-01  8.2125934399423073e-01  8.1047017811319610e-01  8.0220766342291350e-01  7.9613642875653134e-01  7.9199143389432813e-01  7.8958142662563569e-01  7.8879097237488682e-01  7.8958148705924125e-01  7.9199154969385110e-01  7.9613658994984438e-01  8.0220785547578866e-01  8.1047038247732928e-01  8.2125953888885750e-01  8.3497560015132377e-01  8.5207576974182253e-01  8.7306308449972925e-01  8.9847175871796991e-01  9.2884872494662762e-01  9.6473141904729720e-01  1.0066222174600479e+00  1.0549603398374663e+00  1.1100924433039547e+00  1.1722435102560400e+00  1.2414899201839837e+00  1.3177367494083807e+00  1.4007013213258293e+00  1.4899048096307324e+00  1.5846732751529480e+00  1.6841489152244862e+00  1.7873115694443882e+00  1.8930097250181463e+00  2.0000000000000000e+00  2.0000000000000000e+00  1.8832520207929913e+00  1.7679121288012740e+00  1.6553372201329390e+00  1.5467831174253408e+00  1.4433624921345924e+00  1.3460110653855668e+00  1.2554641556009360e+00  1.1722443984805280e+00  1.0966605932618523e+00  1.0288168288194310e+00  9.6863038771272858e-01  9.1585646650293551e-01  8.7011751032125928e-01  8.3093493574453325e-01  7.9776118236063542e-01  7.7001034700290150e-01  7.4708606324238591e-01  7.2840573833013000e-01  7.1342070099337884e-01  7.0163220614692201e-01  6.9260355825035902e-01  6.8596883756467297e-01  6.8143883803370253e-01  6.7880485627161247e-01  6.7794091930767342e-01  6.7880491989889247e-01  6.8143896046265473e-01  6.8596900928943860e-01  6.9260376539145363e-01  7.0163243094613292e-01  7.1342092252617284e-01  7.2840593345558702e-01  7.4708620778945412e-01  7.7001041716028717e-01  7.9776115620029853e-01  8.3093479477158261e-01  8.7011724091369802e-01  9.1585606109050188e-01  9.6862984555096976e-01  1.0288161562459877e+00  1.0966598033757258e+00  1.1722435102560427e+00  1.2554631925264306e+00  1.3460100537901594e+00  1.4433614594216297e+00  1.5467820904574496e+00  1.6553362240048233e+00  1.7679111861927328e+00  1.8832511520138837e+00  2.0000000000000000e+00  2.0000000000000000e+00  1.8744957426235258e+00  1.7505042987917259e+00  1.6294832309380938e+00  1.5127817463094828e+00  1.4015953681613633e+00  1.2969296389496932e+00  1.1995749249821361e+00  1.1100932097999050e+00  1.0288168288194330e+00  9.5585823923139801e-01  8.9112921580214477e-01  8.3436736948720969e-01  7.8516762723724343e-01  7.4301628489017457e-01  7.0732542265371201e-01  6.7746580838651960e-01  6.5279685170838730e-01  6.3269265400666108e-01  6.1656367268584167e-01  6.0387393941476752e-01  5.9415411110241878e-01  5.8701087147342135e-01  5.8213333508729659e-01  5.7929713904059010e-01  5.7836685231037099e-01  5.7929720543244956e-01  5.8213346337607375e-01  5.8701105279262167e-01  5.9415433247655447e-01  6.0387418418826766e-01  6.1656392114869352e-01  6.3269288423980108e-01  6.5279704065329891e-01  6.7746593311532222e-01  7.0732546178193112e-01  7.4301622003996615e-01  7.8516744443085074e-01  8.3436706033548713e-01  8.9112877835667681e-01  9.5585767839365221e-01  1.0288161562459912e+00  1.1100924433039590e+00  1.1995740874997720e+00  1.2969287572037884e+00  1.4015944712048323e+00  1.5127808641531091e+00  1.6294823934604743e+00  1.7505035350890239e+00  1.8744950808897831e+00  2.0000000000000000e+00  2.0000000000000000e+00  1.8667308521408521e+00  1.7350671230819741e+00  1.6065553986094674e+00  1.4826274900022380e+00  1.3645522363970619e+00  1.2533970027430650e+00  1.1500009430159870e+00  1.0549609706113361e+00  9.6863038771273280e-01  8.9112921580214677e-01  8.2236452396762250e-01  7.6205852796886353e-01  7.0978195832388347e-01  6.6499016673534617e-01  6.2705962749375665e-01  5.9532284544688940e-01  5.6910014548741994e-01  5.4772732897932641e-01  5.3057868399601893e-01  5.1708528296240852e-01  5.0674886083848325e-01  4.9915182083488518e-01  4.9396405708714936e-01  4.9094731953403625e-01  4.8995778801533019e-01  4.9094738799500576e-01  4.9396418990997398e-01  4.9915200992096409e-01  5.0674909430446125e-01  5.1708554549695007e-01  5.3057895738972338e-01  5.4772759285337203e-01  5.6910037823085735e-01  5.9532302534782822e-01  6.2705973401928061e-01  6.6499018188362169e-01  7.0978186794557152e-01  7.6205832293947362e-01  8.2236420109279662e-01  8.9112877835667959e-01  9.6862984555097498e-01  1.0549603398374725e+00  1.1500002452603295e+00  1.2533962641455190e+00  1.3645514864413231e+00  1.4826267603654519e+00  1.6065547221867069e+00  1.7350665333118351e+00  1.8667303827092261e+00  2.0000000000000000e+00  2.0000000000000000e+00  1.8599252194449052e+00  1.7215367695340624e+00  1.5864590313282581e+00  1.4561960182138338e+00  1.3320806800688998e+00  1.2152344775634836e+00  1.1065392983838291e+00  1.0066227051280212e+00  9.1585646650294350e-01  8.3436736948721413e-01  7.6205852796886597e-01  6.9863885354934130e-01  6.4365806530673719e-01  5.9654458403700972e-01  5.5664385204018363e-01  5.2325499100565143e-01  4.9566419595458971e-01  4.7317379827340611e-01  4.5512645676539254e-01  4.4092440437657271e-01  4.3004405572880611e-01  4.2204654731733005e-01  4.1658493211853947e-01  4.1340878837404393e-01  4.1236694160672194e-01  4.1340885799745059e-01  4.1658506770407661e-01  4.2204674161841532e-01  4.3004429808039857e-01  4.4092468097919774e-01  4.5512675111750639e-01  4.7317409177958275e-01  4.9566446872412878e-01  5.2325522283512060e-01  5.5664402354676756e-01  5.9654467788144128e-01  6.4365806742011045e-01  6.9863875426235955e-01  7.6205832293947795e-01  8.3436706033549368e-01  9.1585606109051065e-01  1.0066222174600561e+00  1.1065387481589581e+00  1.2152338894427610e+00  1.3320800827713868e+00  1.4561954435655613e+00  1.5864585133891291e+00  1.7215363439024844e+00  1.8599249228084385e+00  2.0000000000000000e+00  2.0000000000000000e+00  1.8540295348637783e+00  1.7098152566174660e+00  1.5690487285696242e+00  1.4332963292278240e+00  1.3039464097471118e+00  1.1821672102768359e+00  1.0688776130574258e+00  9.6473176337896682e-01  8.7011751032126861e-01  7.8516762723724975e-01  7.0978195832388691e-01  6.4365806530673908e-01  5.8632764703654539e-01  5.3719597134504660e-01  4.9558176092924766e-01  4.6075536053620053e-01  4.3197351690148295e-01  4.0850965899880798e-01  3.8967911299087621e-01  3.7485917390348678e-01  3.6350434896522660e-01  3.5515736540540688e-01  3.4945669187799416e-01  3.4614136267726869e-01  3.4505383114837651e-01  3.4614143240708989e-01  3.4945682813433804e-01  3.5515756183550268e-01  3.6350459618860759e-01  3.7485945972690771e-01  3.8967942274694833e-01  4.0850997603681793e-01  4.3197382324862071e-01  4.6075563772976441e-01  4.9558199099748307e-01  5.3719613788950082e-01  5.8632773634642066e-01  6.4365806742011367e-01  7.0978186794557985e-01  7.8516744443086051e-01  8.7011724091370946e-01  9.6473141904730964e-01  1.0688772111055087e+00  1.1821667731466512e+00  1.3039459643406286e+00  1.4332959061327066e+00  1.5690483612833328e+00  1.7098149808477876e+00  1.8540293879678664e+00  2.0000000000000000e+00  2.0000000000000000e+00  1.8489814412064247e+00  1.6997786652046014e+00  1.5541405692610153e+00  1.4136867646236471e+00  1.2798529138335897e+00  1.1538472351919637e+00  1.0366202633901638e+00  9.2884893276668057e-01  8.3093493574453903e-01  7.4301628489017835e-01  6.6499016673534850e-01  5.9654458403701027e-01  5.3719597134504615e-01  4.8632993329093693e-01  4.4324246308941095e-01  4.0717939597174713e-01  3.7737237224212661e-01  3.5307015849661089e-01  3.3356474009386866e-01  3.1821210163438934e-01  3.0644801826434781e-01  2.9779946797359497e-01  2.9189243701251005e-01  2.8845693230662861e-01  2.8732995031526992e-01  2.8845700100118743e-01  2.9189257165674354e-01  2.9779966311192457e-01  3.0644826581201995e-01  3.1821239102999910e-01  3.3356505855220192e-01  3.5307049139034263e-01  3.7737270363300024e-01  4.0717970929738961e-01  4.4324274199257124e-01  4.8633016255642858e-01  5.3719613788950316e-01  5.9654467788144649e-01  6.6499018188363024e-01  7.4301622003997803e-01  8.3093479477159671e-01  9.2884872494664283e-01  1.0366200033514381e+00  1.1538469426231204e+00  1.2798526129945063e+00  1.4136864837259817e+00  1.5541403397875957e+00  1.6997785212281458e+00  1.8489814187644580e+00  2.0000000000000000e+00  2.0000000000000000e+00  1.8447097027805990e+00  1.6912854238903590e+00  1.5415244103170733e+00  1.3970911713133465e+00  1.2594612933206117e+00  1.1298767565471417e+00  1.0093148588482515e+00  8.9847184322387186e-01  7.9776118236063875e-01  7.0732542265371434e-01  6.2705962749375810e-01  5.5664385204018385e-01  4.9558176092924755e-01  4.4324246308941062e-01  3.9890285050205621e-01  3.6178813464960474e-01  3.3110880747664534e-01  3.0609284232166140e-01  2.8601252962999485e-01  2.7020585936211189e-01  2.5809277911297795e-01  2.4918695233072075e-01  2.4310380772172685e-01  2.3956571422446815e-01  2.3840505016497399e-01  2.3956578071731882e-01  2.4310393840461161e-01  2.4918714261566985e-01  2.5809302217419389e-01  2.7020614623475586e-01  2.8601284938792410e-01  3.0609318236182154e-01  3.3110915393194185e-01  3.6178847294044503e-01  3.9890316602065529e-01  4.4324274199257285e-01  4.9558199099748684e-01  5.5664402354677345e-01  6.2705973401928938e-01  7.0732546178194300e-01  7.9776115620031263e-01  8.9847175871798646e-01  1.0093147278541486e+00  1.1298765956945658e+00  1.2594611236760911e+00  1.3970910178942240e+00  1.5415243015048119e+00  1.6912853907894025e+00  1.8447097785744775e+00  2.0000000000000000e+00  2.0000000000000000e+00  1.8411381840630221e+00  1.6841842164963128e+00  1.5309756255976932e+00  1.3832143304766513e+00  1.2424092003301672e+00  1.1098303837982755e+00  9.8647753594970311e-01  8.7306306411393064e-01  7.7001034700290483e-01  6.7746580838652115e-01  5.9532284544689118e-01  5.2325499100565243e-01  4.6075536053620053e