<?xml version="1.0"?>
<VTKFile type="UnstructuredGrid"  version="0.1"  >
<UnstructuredGrid>
<Piece  NumberOfPoints="2601" NumberOfCells="5000">
<Points>
<DataArray  type="Float64"  NumberOfComponents="3"  format="ascii">0 0 0  0.02 0 0  0.04 0 0  0.06 0 0  0.08 0 0  0.1 0 0  0.12 0 0  0.14 0 0  0.16 0 0  0.18 0 0  0.2 0 0  0.22 0 0  0.24 0 0  0.26 0 0  0.28 0 0  0.3 0 0  0.32 0 0  0.34 0 0  0.36 0 0  0.38 0 0  0.4 0 0  0.42 0 0  0.44 0 0  0.46 0 0  0.48 0 0  0.5 0 0  0.52 0 0  0.54 0 0  0.5600000000000001 0 0  0.58 0 0  0.6 0 0  0.62 0 0  0.64 0 0  0.66 0 0  0.68 0 0  0.7 0 0  0.72 0 0  0.74 0 0  0.76 0 0  0.78 0 0  0.8 0 0  0.82 0 0  0.84 0 0  0.86 0 0  0.88 0 0  0.9 0 0  0.92 0 0  0.9399999999999999 0 0  0.96 0 0  0.98 0 0  1 0 0  0 0.02 0  0.02 0.02 0  0.04 0.02 0  0.06 0.02 0  0.08 0.02 0  0.1 0.02 0  0.12 0.02 0  0.14 0.02 0  0.16 0.02 0  0.18 0.02 0  0.2 0.02 0  0.22 0.02 0  0.24 0.02 0  0.26 0.02 0  0.28 0.02 0  0.3 0.02 0  0.32 0.02 0  0.34 0.02 0  0.36 0.02 0  0.38 0.02 0  0.4 0.02 0  0.42 0.02 0  0.44 0.02 0  0.46 0.02 0  0.48 0.02 0  0.5 0.02 0  0.52 0.02 0  0.54 0.02 0  0.5600000000000001 0.02 0  0.58 0.02 0  0.6 0.02 0  0.62 0.02 0  0.64 0.02 0  0.66 0.02 0  0.68 0.02 0  0.7 0.02 0  0.72 0.02 0  0.74 0.02 0  0.76 0.02 0  0.78 0.02 0  0.8 0.02 0  0.82 0.02 0  0.84 0.02 0  0.86 0.02 0  0.88 0.02 0  0.9 0.02 0  0.92 0.02 0  0.9399999999999999 0.02 0  0.96 0.02 0  0.98 0.02 0  1 0.02 0  0 0.04 0  0.02 0.04 0  0.04 0.04 0  0.06 0.04 0  0.08 0.04 0  0.1 0.04 0  0.12 0.04 0  0.14 0.04 0  0.16 0.04 0  0.18 0.04 0  0.2 0.04 0  0.22 0.04 0  0.24 0.04 0  0.26 0.04 0  0.28 0.04 0  0.3 0.04 0  0.32 0.04 0  0.34 0.04 0  0.36 0.04 0  0.38 0.04 0  0.4 0.04 0  0.42 0.04 0  0.44 0.04 0  0.46 0.04 0  0.48 0.04 0  0.5 0.04 0  0.52 0.04 0  0.54 0.04 0  0.5600000000000001 0.04 0  0.58 0.04 0  0.6 0.04 0  0.62 0.04 0  0.64 0.04 0  0.66 0.04 0  0.68 0.04 0  0.7 0.04 0  0.72 0.04 0  0.74 0.04 0  0.76 0.04 0  0.78 0.04 0  0.8 0.04 0  0.82 0.04 0  0.84 0.04 0  0.86 0.04 0  0.88 0.04 0  0.9 0.04 0  0.92 0.04 0  0.9399999999999999 0.04 0  0.96 0.04 0  0.98 0.04 0  1 0.04 0  0 0.06 0  0.02 0.06 0  0.04 0.06 0  0.06 0.06 0  0.08 0.06 0  0.1 0.06 0  0.12 0.06 0  0.14 0.06 0  0.16 0.06 0  0.18 0.06 0  0.2 0.06 0  0.22 0.06 0  0.24 0.06 0  0.26 0.06 0  0.28 0.06 0  0.3 0.06 0  0.32 0.06 0  0.34 0.06 0  0.36 0.06 0  0.38 0.06 0  0.4 0.06 0  0.42 0.06 0  0.44 0.06 0  0.46 0.06 0  0.48 0.06 0  0.5 0.06 0  0.52 0.06 0  0.54 0.06 0  0.5600000000000001 0.06 0  0.58 0.06 0  0.6 0.06 0  0.62 0.06 0  0.64 0.06 0  0.66 0.06 0  0.68 0.06 0  0.7 0.06 0  0.72 0.06 0  0.74 0.06 0  0.76 0.06 0  0.78 0.06 0  0.8 0.06 0  0.82 0.06 0  0.84 0.06 0  0.86 0.06 0  0.88 0.06 0  0.9 0.06 0  0.92 0.06 0  0.9399999999999999 0.06 0  0.96 0.06 0  0.98 0.06 0  1 0.06 0  0 0.08 0  0.02 0.08 0  0.04 0.08 0  0.06 0.08 0  0.08 0.08 0  0.1 0.08 0  0.12 0.08 0  0.14 0.08 0  0.16 0.08 0  0.18 0.08 0  0.2 0.08 0  0.22 0.08 0  0.24 0.08 0  0.26 0.08 0  0.28 0.08 0  0.3 0.08 0  0.32 0.08 0  0.34 0.08 0  0.36 0.08 0  0.38 0.08 0  0.4 0.08 0  0.42 0.08 0  0.44 0.08 0  0.46 0.08 0  0.48 0.08 0  0.5 0.08 0  0.52 0.08 0  0.54 0.08 0  0.5600000000000001 0.08 0  0.58 0.08 0  0.6 0.08 0  0.62 0.08 0  0.64 0.08 0  0.66 0.08 0  0.68 0.08 0  0.7 0.08 0  0.72 0.08 0  0.74 0.08 0  0.76 0.08 0  0.78 0.08 0  0.8 0.08 0  0.82 0.08 0  0.84 0.08 0  0.86 0.08 0  0.88 0.08 0  0.9 0.08 0  0.92 0.08 0  0.9399999999999999 0.08 0  0.96 0.08 0  0.98 0.08 0  1 0.08 0  0 0.1 0  0.02 0.1 0  0.04 0.1 0  0.06 0.1 0  0.08 0.1 0  0.1 0.1 0  0.12 0.1 0  0.14 0.1 0  0.16 0.1 0  0.18 0.1 0  0.2 0.1 0  0.22 0.1 0  0.24 0.1 0  0.26 0.1 0  0.28 0.1 0  0.3 0.1 0  0.32 0.1 0  0.34 0.1 0  0.36 0.1 0  0.38 0.1 0  0.4 0.1 0  0.42 0.1 0  0.44 0.1 0  0.46 0.1 0  0.48 0.1 0  0.5 0.1 0  0.52 0.1 0  0.54 0.1 0  0.5600000000000001 0.1 0  0.58 0.1 0  0.6 0.1 0  0.62 0.1 0  0.64 0.1 0  0.66 0.1 0  0.68 0.1 0  0.7 0.1 0  0.72 0.1 0  0.74 0.1 0  0.76 0.1 0  0.78 0.1 0  0.8 0.1 0  0.82 0.1 0  0.84 0.1 0  0.86 0.1 0  0.88 0.1 0  0.9 0.1 0  0.92 0.1 0  0.9399999999999999 0.1 0  0.96 0.1 0  0.98 0.1 0  1 0.1 0  0 0.12 0  0.02 0.12 0  0.04 0.12 0  0.06 0.12 0  0.08 0.12 0  0.1 0.12 0  0.12 0.12 0  0.14 0.12 0  0.16 0.12 0  0.18 0.12 0  0.2 0.12 0  0.22 0.12 0  0.24 0.12 0  0.26 0.12 0  0.28 0.12 0  0.3 0.12 0  0.32 0.12 0  0.34 0.12 0  0.36 0.12 0  0.38 0.12 0  0.4 0.12 0  0.42 0.12 0  0.44 0.12 0  0.46 0.12 0  0.48 0.12 0  0.5 0.12 0  0.52 0.12 0  0.54 0.12 0  0.5600000000000001 0.12 0  0.58 0.12 0  0.6 0.12 0  0.62 0.12 0  0.64 0.12 0  0.66 0.12 0  0.68 0.12 0  0.7 0.12 0  0.72 0.12 0  0.74 0.12 0  0.76 0.12 0  0.78 0.12 0  0.8 0.12 0  0.82 0.12 0  0.84 0.12 0  0.86 0.12 0  0.88 0.12 0  0.9 0.12 0  0.92 0.12 0  0.9399999999999999 0.12 0  0.96 0.12 0  0.98 0.12 0  1 0.12 0  0 0.14 0  0.02 0.14 0  0.04 0.14 0  0.06 0.14 0  0.08 0.14 0  0.1 0.14 0  0.12 0.14 0  0.14 0.14 0  0.16 0.14 0  0.18 0.14 0  0.2 0.14 0  0.22 0.14 0  0.24 0.14 0  0.26 0.14 0  0.28 0.14 0  0.3 0.14 0  0.32 0.14 0  0.34 0.14 0  0.36 0.14 0  0.38 0.14 0  0.4 0.14 0  0.42 0.14 0  0.44 0.14 0  0.46 0.14 0  0.48 0.14 0  0.5 0.14 0  0.52 0.14 0  0.54 0.14 0  0.5600000000000001 0.14 0  0.58 0.14 0  0.6 0.14 0  0.62 0.14 0  0.64 0.14 0  0.66 0.14 0  0.68 0.14 0  0.7 0.14 0  0.72 0.14 0  0.74 0.14 0  0.76 0.14 0  0.78 0.14 0  0.8 0.14 0  0.82 0.14 0  0.84 0.14 0  0.86 0.14 0  0.88 0.14 0  0.9 0.14 0  0.92 0.14 0  0.9399999999999999 0.14 0  0.96 0.14 0  0.98 0.14 0  1 0.14 0  0 0.16 0  0.02 0.16 0  0.04 0.16 0  0.06 0.16 0  0.08 0.16 0  0.1 0.16 0  0.12 0.16 0  0.14 0.16 0  0.16 0.16 0  0.18 0.16 0  0.2 0.16 0  0.22 0.16 0  0.24 0.16 0  0.26 0.16 0  0.28 0.16 0  0.3 0.16 0  0.32 0.16 0  0.34 0.16 0  0.36 0.16 0  0.38 0.16 0  0.4 0.16 0  0.42 0.16 0  0.44 0.16 0  0.46 0.16 0  0.48 0.16 0  0.5 0.16 0  0.52 0.16 0  0.54 0.16 0  0.5600000000000001 0.16 0  0.58 0.16 0  0.6 0.16 0  0.62 0.16 0  0.64 0.16 0  0.66 0.16 0  0.68 0.16 0  0.7 0.16 0  0.72 0.16 0  0.74 0.16 0  0.76 0.16 0  0.78 0.16 0  0.8 0.16 0  0.82 0.16 0  0.84 0.16 0  0.86 0.16 0  0.88 0.16 0  0.9 0.16 0  0.92 0.16 0  0.9399999999999999 0.16 0  0.96 0.16 0  0.98 0.16 0  1 0.16 0  0 0.18 0  0.02 0.18 0  0.04 0.18 0  0.06 0.18 0  0.08 0.18 0  0.1 0.18 0  0.12 0.18 0  0.14 0.18 0  0.16 0.18 0  0.18 0.18 0  0.2 0.18 0  0.22 0.18 0  0.24 0.18 0  0.26 0.18 0  0.28 0.18 0  0.3 0.18 0  0.32 0.18 0  0.34 0.18 0  0.36 0.18 0  0.38 0.18 0  0.4 0.18 0  0.42 0.18 0  0.44 0.18 0  0.46 0.18 0  0.48 0.18 0  0.5 0.18 0  0.52 0.18 0  0.54 0.18 0  0.5600000000000001 0.18 0  0.58 0.18 0  0.6 0.18 0  0.62 0.18 0  0.64 0.18 0  0.66 0.18 0  0.68 0.18 0  0.7 0.18 0  0.72 0.18 0  0.74 0.18 0  0.76 0.18 0  0.78 0.18 0  0.8 0.18 0  0.82 0.18 0  0.84 0.18 0  0.86 0.18 0  0.88 0.18 0  0.9 0.18 0  0.92 0.18 0  0.9399999999999999 0.18 0  0.96 0.18 0  0.98 0.18 0  1 0.18 0  0 0.2 0  0.02 0.2 0  0.04 0.2 0  0.06 0.2 0  0.08 0.2 0  0.1 0.2 0  0.12 0.2 0  0.14 0.2 0  0.16 0.2 0  0.18 0.2 0  0.2 0.2 0  0.22 0.2 0  0.24 0.2 0  0.26 0.2 0  0.28 0.2 0  0.3 0.2 0  0.32 0.2 0  0.34 0.2 0  0.36 0.2 0  0.38 0.2 0  0.4 0.2 0  0.42 0.2 0  0.44 0.2 0  0.46 0.2 0  0.48 0.2 0  0.5 0.2 0  0.52 0.2 0  0.54 0.2 0  0.5600000000000001 0.2 0  0.58 0.2 0  0.6 0.2 0  0.62 0.2 0  0.64 0.2 0  0.66 0.2 0  0.68 0.2 0  0.7 0.2 0  0.72 0.2 0  0.74 0.2 0  0.76 0.2 0  0.78 0.2 0  0.8 0.2 0  0.82 0.2 0  0.84 0.2 0  0.86 0.2 0  0.88 0.2 0  0.9 0.2 0  0.92 0.2 0  0.9399999999999999 0.2 0  0.96 0.2 0  0.98 0.2 0  1 0.2 0  0 0.22 0  0.02 0.22 0  0.04 0.22 0  0.06 0.22 0  0.08 0.22 0  0.1 0.22 0  0.12 0.22 0  0.14 0.22 0  0.16 0.22 0  0.18 0.22 0  0.2 0.22 0  0.22 0.22 0  0.24 0.22 0  0.26 0.22 0  0.28 0.22 0  0.3 0.22 0  0.32 0.22 0  0.34 0.22 0  0.36 0.22 0  0.38 0.22 0  0.4 0.22 0  0.42 0.22 0  0.44 0.22 0  0.46 0.22 0  0.48 0.22 0  0.5 0.22 0  0.52 0.22 0  0.54 0.22 0  0.5600000000000001 0.22 0  0.58 0.22 0  0.6 0.22 0  0.62 0.22 0  0.64 0.22 0  0.66 0.22 0  0.68 0.22 0  0.7 0.22 0  0.72 0.22 0  0.74 0.22 0  0.76 0.22 0  0.78 0.22 0  0.8 0.22 0  0.82 0.22 0  0.84 0.22 0  0.86 0.22 0  0.88 0.22 0  0.9 0.22 0  0.92 0.22 0  0.9399999999999999 0.22 0  0.96 0.22 0  0.98 0.22 0  1 0.22 0  0 0.24 0  0.02 0.24 0  0.04 0.24 0  0.06 0.24 0  0.08 0.24 0  0.1 0.24 0  0.12 0.24 0  0.14 0.24 0  0.16 0.24 0  0.18 0.24 0  0.2 0.24 0  0.22 0.24 0  0.24 0.24 0  0.26 0.24 0  0.28 0.24 0  0.3 0.24 0  0.32 0.24 0  0.34 0.24 0  0.36 0.24 0  0.38 0.24 0  0.4 0.24 0  0.42 0.24 0  0.44 0.24 0  0.46 0.24 0  0.48 0.24 0  0.5 0.24 0  0.52 0.24 0  0.54 0.24 0  0.5600000000000001 0.24 0  0.58 0.24 0  0.6 0.24 0  0.62 0.24 0  0.64 0.24 0  0.66 0.24 0  0.68 0.24 0  0.7 0.24 0  0.72 0.24 0  0.74 0.24 0  0.76 0.24 0  0.78 0.24 0  0.8 0.24 0  0.82 0.24 0  0.84 0.24 0  0.86 0.24 0  0.88 0.24 0  0.9 0.24 0  0.92 0.24 0  0.9399999999999999 0.24 0  0.96 0.24 0  0.98 0.24 0  1 0.24 0  0 0.26 0  0.02 0.26 0  0.04 0.26 0  0.06 0.26 0  0.08 0.26 0  0.1 0.26 0  0.12 0.26 0  0.14 0.26 0  0.16 0.26 0  0.18 0.26 0  0.2 0.26 0  0.22 0.26 0  0.24 0.26 0  0.26 0.26 0  0.28 0.26 0  0.3 0.26 0  0.32 0.26 0  0.34 0.26 0  0.36 0.26 0  0.38 0.26 0  0.4 0.26 0  0.42 0.26 0  0.44 0.26 0  0.46 0.26 0  0.48 0.26 0  0.5 0.26 0  0.52 0.26 0  0.54 0.26 0  0.5600000000000001 0.26 0  0.58 0.26 0  0.6 0.26 0  0.62 0.26 0  0.64 0.26 0  0.66 0.26 0  0.68 0.26 0  0.7 0.26 0  0.72 0.26 0  0.74 0.26 0  0.76 0.26 0  0.78 0.26 0  0.8 0.26 0  0.82 0.26 0  0.84 0.26 0  0.86 0.26 0  0.88 0.26 0  0.9 0.26 0  0.92 0.26 0  0.9399999999999999 0.26 0  0.96 0.26 0  0.98 0.26 0  1 0.26 0  0 0.28 0  0.02 0.28 0  0.04 0.28 0  0.06 0.28 0  0.08 0.28 0  0.1 0.28 0  0.12 0.28 0  0.14 0.28 0  0.16 0.28 0  0.18 0.28 0  0.2 0.28 0  0.22 0.28 0  0.24 0.28 0  0.26 0.28 0  0.28 0.28 0  0.3 0.28 0  0.32 0.28 0  0.34 0.28 0  0.36 0.28 0  0.38 0.28 0  0.4 0.28 0  0.42 0.28 0  0.44 0.28 0  0.46 0.28 0  0.48 0.28 0  0.5 0.28 0  0.52 0.28 0  0.54 0.28 0  0.5600000000000001 0.28 0  0.58 0.28 0  0.6 0.28 0  0.62 0.28 0  0.64 0.28 0  0.66 0.28 0  0.68 0.28 0  0.7 0.28 0  0.72 0.28 0  0.74 0.28 0  0.76 0.28 0  0.78 0.28 0  0.8 0.28 0  0.82 0.28 0  0.84 0.28 0  0.86 0.28
[...]
<PointData  Scalars="f_12"> 
<DataArray  type="Float64"  Name="f_12"  format="ascii">2.0000000000000000e+00  2.0000000000000000e+00  2.0000000000000000e+00  2.0000000000000000e+00  2.0000000000000000e+00  2.0000000000000000e+00  2.0000000000000000e+00  2.0000000000000000e+00  2.0000000000000000e+00  2.0000000000000000e+00  2.0000000000000000e+00  2.0000000000000000e+00  2.0000000000000000e+00  2.0000000000000000e+00  2.0000000000000000e+00  2.0000000000000000e+00  2.0000000000000000e+00  2.0000000000000000e+00  2.0000000000000000e+00  2.0000000000000000e+00  2.0000000000000000e+00  2.0000000000000000e+00  2.0000000000000000e+00  2.0000000000000000e+00  2.0000000000000000e+00  2.0000000000000000e+00  2.0000000000000000e+00  2.0000000000000000e+00  2.0000000000000000e+00  2.0000000000000000e+00  2.0000000000000000e+00  2.0000000000000000e+00  2.0000000000000000e+00  2.0000000000000000e+00  2.0000000000000000e+00  2.0000000000000000e+00  2.0000000000000000e+00  2.0000000000000000e+00  2.0000000000000000e+00  2.0000000000000000e+00  2.0000000000000000e+00  2.0000000000000000e+00  2.0000000000000000e+00  2.0000000000000000e+00  2.0000000000000000e+00  2.0000000000000000e+00  2.0000000000000000e+00  2.0000000000000000e+00  2.0000000000000000e+00  2.0000000000000000e+00  2.0000000000000000e+00  2.0000000000000000e+00  1.9517151572693692e+00  1.9053733838469695e+00  1.8626929568568038e+00  1.8249275405761194e+00  1.7927837141953546e+00  1.7664270898001699e+00  1.7455722241154439e+00  1.7296193702648421e+00  1.7178000247922551e+00  1.7093026860552070e+00  1.7033638693318751e+00  1.6993217598709398e+00  1.6966380598687247e+00  1.6948972045234971e+00  1.6937922722339434e+00  1.6931051248328772e+00  1.6926858904648365e+00  1.6924346688100942e+00  1.6922866634168805e+00  1.6922008828101760e+00  1.6921519936294116e+00  1.6921246989434033e+00  1.6921100100766788e+00  1.6921028754996024e+00  1.6921007599961846e+00  1.6921028975179684e+00  1.6921100594824476e+00  1.6921247872338805e+00  1.6921521398826016e+00  1.6922011156434789e+00  1.6922870230362712e+00  1.6924352083545517e+00  1.6926866753123961e+00  1.6931062279051552e+00  1.6937937628173201e+00  1.6948991281038099e+00  1.6966404075178654e+00  1.6993244284328850e+00  1.7033666183197178e+00  1.7093051031849722e+00  1.7178015173464207e+00  1.7296192002858621e+00  1.7455695975232568e+00  1.7664212907980157e+00  1.7927742501878288e+00  1.8249142389234616e+00  1.8626759404877240e+00  1.9053528185623103e+00  1.9516903862090493e+00  2.0000000000000000e+00  2.0000000000000000e+00  1.9053733838469706e+00  1.8145643680361843e+00  1.7309174808332475e+00  1.6568880513885631e+00  1.5938618579862369e+00  1.5421669513261969e+00  1.5012486965972069e+00  1.4699365156429065e+00  1.4467282019464205e+00  1.4300359382114129e+00  1.4183646533890000e+00  1.4104174311736315e+00  1.4051386930185423e+00  1.4017130144340917e+00  1.3995377845318031e+00  1.3981844600878133e+00  1.3973584455047050e+00  1.3968632661462188e+00  1.3965714206362845e+00  1.3964022092661093e+00  1.3963057347876751e+00  1.3962518544196765e+00  1.3962228483881405e+00  1.3962087544781494e+00  1.3962045709859678e+00  1.3962087852558154e+00  1.3962229170607303e+00  1.3962519760886249e+00  1.3963059341392008e+00  1.3964025225692334e+00  1.3965718974678918e+00  1.3968639696735070e+00  1.3973594495207642e+00  1.3981858403770011e+00  1.3995396018743769e+00  1.4017152871959362e+00  1.4051413594994548e+00  1.4104203062389642e+00  1.4183673901922196e+00  1.4300380123576177e+00  1.4467289385719395e+00  1.4699351744184441e+00  1.5012446113625466e+00  1.5421596910420468e+00  1.5938513446333293e+00  1.6568745578667374e+00  1.7309014564321237e+00  1.8145461120082578e+00  1.9053528185623090e+00  2.0000000000000000e+00  2.0000000000000000e+00  1.8626929568568031e+00  1.7309174808332473e+00  1.6095076049893624e+00  1.5020218904753009e+00  1.4104741766897322e+00  1.3353488732695002e+00  1.2758520992832141e+00  1.2302959223711645e+00  1.1965089297171072e+00  1.1721923328759054e+00  1.1551788428530358e+00  1.1435862775421834e+00  1.1358810873921192e+00  1.1308774435395745e+00  1.1276981740334511e+00  1.1257189217931054e+00  1.1245101127738650e+00  1.1237850154801021e+00  1.1233574103269555e+00  1.1231093443620797e+00  1.1229678341516438e+00  1.1228887607962210e+00  1.1228461722541987e+00  1.1228254699320719e+00  1.1228193209259310e+00  1.1228255063416033e+00  1.1228462532888344e+00  1.1228889038231527e+00  1.1229680673922331e+00  1.1231097089453881e+00  1.1233579618922374e+00  1.1237858239716445e+00  1.1245112584000445e+00  1.1257204845261133e+00  1.1277002139043486e+00  1.1308799699523469e+00  1.1358840184561023e+00  1.1435893954606779e+00  1.1551817582567541e+00  1.1721944775137583e+00  1.1965095988732684e+00  1.2302943802762845e+00  1.2758477388686615e+00  1.3353413887387744e+00  1.4104636772158408e+00  1.5020088787356516e+00  1.6094927860267194e+00  1.7309014564321235e+00  1.8626759404877242e+00  2.0000000000000000e+00  2.0000000000000000e+00  1.8249275405761192e+00  1.6568880513885602e+00  1.5020218904753009e+00  1.3648595664883190e+00  1.2479736365571950e+00  1.1519953356501718e+00  1.0759301565591601e+00  1.0176431984019700e+00  9.7437942855202098e-01  9.4321628383429390e-01  9.2139384328471630e-01  9.0651173886773662e-01  8.9661156054044722e-01  8.9017701155205264e-01  8.8608510052567668e-01  8.8353556830322277e-01  8.8197720131656820e-01  8.8104168316284204e-01  8.8048956368055797e-01  8.8016902483639747e-01  8.7998604155503779e-01  8.7988372507078472e-01  8.7982858447616141e-01  8.7980176688557210e-01  8.7979379698818239e-01  8.7980180614269654e-01  8.7982867172464996e-01  8.7988387874664675e-01  8.7998629155043706e-01  8.8016941460310583e-01  8.8049015184889767e-01  8.8104254328506737e-01  8.8197841768411811e-01  8.8353722522850242e-01  8.8608726242418345e-01  8.9017969221671911e-01  8.9661468284392609e-01  9.0651509114195750e-01  9.2139704527372390e-01  9.4321878122965230e-01  9.7438053661322721e-01  1.0176422069890245e+00  1.0759264879702586e+00  1.1519887163202702e+00  1.2479642171686256e+00  1.3648479231464210e+00  1.5020088787356520e+00  1.6568745578667377e+00  1.8249142389234607e+00  2.0000000000000000e+00  2.0000000000000000e+00  1.7927837141953535e+00  1.5938618579862351e+00  1.4104741766897331e+00  1.2479736365571945e+00  1.1094113267722765e+00  9.9555241754907020e-01  9.0524354725388789e-01  8.3598115647782567e-01  7.8452288205813425e-01  7.4742123632602153e-01  7.2141445808476856e-01  7.0366094861357176e-01  6.9183868300348117e-01  6.8414717444840678e-01  6.7925107071625623e-01  6.7619749131042084e-01  6.7432924363512126e-01  6.7320664785411033e-01  6.7254351573932258e-01  6.7215818713369735e-01  6.7193803119207229e-01  6.7181483103249495e-01  6.7174838812699145e-01  6.7171605455300187e-01  6.7170644001001112e-01  6.7171609430292867e-01  6.7174847638848345e-01  6.7181498629212577e-01  6.7193828341459938e-01  6.7215857988710659e-01  6.7254410789995112e-01  6.7320751357840602e-01  6.7433046867339941e-01  6.7619916322790796e-01  6.7925326054893187e-01  6.8414990830364397e-01  6.9184190471469842e-01  7.0366447908877328e-01  7.2141796294092575e-01  7.4742421885048260e-01  7.8452471995908946e-01  8.3598119404807436e-01  9.0524123704090154e-01  9.9554748039429453e-01  1.1094038770675729e+00  1.2479642171686269e+00  1.4104636772158430e+00  1.5938513446333313e+00  1.7927742501878288e+00  2.0000000000000000e+00  2.0000000000000000e+00  1.7664270898001695e+00  1.5421669513261971e+00  1.3353488732695007e+00  1.1519953356501720e+00  9.9555241754907042e-01  8.6690355794327523e-01  7.6477657101483087e-01  6.8637708182503732e-01  6.2807245238412845e-01  5.8599085114477945e-01  5.5646177939829811e-01  5.3628187263338778e-01  5.2282914241659706e-01  5.1406729936688567e-01  5.0848381521978714e-01  5.0499780365525793e-01  5.0286273744535936e-01  5.0157849073293481e-01  5.0081910447067557e-01  5.0037741287057980e-01  5.0012481622141836e-01  4.9998333652905652e-01  4.9990697445637938e-01  4.9986978968446250e-01  4.9985872647231760e-01  4.9986982805384605e-01  4.9990705959287440e-01  4.9998348615488858e-01  5.0012505908260929e-01  5.0037779083695477e-01  5.0081967433347807e-01  5.0157932453549614e-01  5.0286391964270527e-01  5.0499942294661371e-01  5.0848594885185205e-01  5.1406998852923713e-01  5.2283235954071039e-01  5.3628548521903663e-01  5.5646552000095129e-01  5.8599430780447037e-01  6.2807509524959904e-01  6.8637833670958348e-01  7.6477593722984549e-01  8.6690074823765506e-01  9.9554748039429641e-01  1.1519887163202718e+00  1.3353413887387775e+00  1.5421596910420503e+00  1.7664212907980168e+00  2.0000000000000000e+00  2.0000000000000000e+00  1.7455722241154434e+00  1.5012486965972067e+00  1.2758520992832143e+00  1.0759301565591597e+00  9.0524354725388645e-01  7.6477657101483065e-01  6.5317307891242304e-01  5.6741884193545900e-01  5.0358089294265251e-01  4.5745730115284622e-01  4.2505686274412446e-01  4.0289019686797567e-01  3.8809648526231016e-01  3.7845044044662474e-01  3.7229662191719831e-01  3.6845026301670653e-01  3.6609191510801231e-01  3.6467183517771701e-01  3.6383124273186118e-01  3.6334181476586647e-01  3.6306164024286208e-01  3.6290456685946182e-01  3.6281971678097280e-01  3.6277837049939937e-01  3.6276606240295761e-01  3.6277840611021284e-01  3.6281979574908740e-01  3.6290470554091681e-01  3.6306186520010275e-01  3.6334216478620324e-01  3.6383177067618855e-01  3.6467260867883688e-01  3.6609301468129396e-01  3.6845177575742888e-01  3.7229862889664839e-01  3.7845299655499093e-01  3.8809959197620270e-01  4.0289377144785321e-01  4.2506071137105400e-01  4.5746110731386369e-01  5.0358423386123863e-01  5.6742124254373461e-01  6.5317410333341352e-01  7.6477593722984560e-01  9.0524123704090198e-01  1.0759264879702606e+00  1.2758477388686640e+00  1.5012446113625491e+00  1.7455695975232570e+00  2.0000000000000000e+00  2.0000000000000000e+00  1.7296193702648415e+00  1.4699365156429078e+00  1.2302959223711638e+00  1.0176431984019687e+00  8.3598115647782567e-01  6.8637708182503709e-01  5.6741884193545933e-01  4.7593258414491946e-01  4.0776281043374057e-01  3.5846002338105637e-01  3.2379019266760889e-01  3.0004554501019826e-01  2.8418147116173598e-01  2.7382616156833628e-01  2.6721259598724822e-01  2.6307434986838535e-01  2.6053427716683458e-01  2.5900312900233025e-01  2.5809583371277306e-01  2.5756702215100269e-01  2.5726399901271357e-01  2.5709395483099140e-01  2.5700201954835544e-01  2.5695718980345128e-01  2.5694383763579903e-01  2.5695722175155311e-01  2.5700209035310895e-01  2.5709407908824317e-01  2.5726420046008225e-01  2.5756733554830963e-01  2.5809630667345962e-01  2.5900382298556568e-01  2.6053526646770325e-01  2.6307571711964578e-01  2.6721442260988315e-01  2.7382851206499176e-01  2.8418437143956993e-01  3.0004895720702884e-01  3.2379399201293446e-01  3.5846398560672416e-01  4.0776661965151872e-01  4.7593586915642888e-01  5.6742124254373560e-01  6.8637833670958492e-01  8.3598119404807658e-01  1.0176422069890272e+00  1.2302943802762878e+00  1.4699351744184483e+00  1.7296192002858639e+00  2.0000000000000000e+00  2.0000000000000000e+00  1.7178000247922565e+00  1.4467282019464207e+00  1.1965089297171059e+00  9.7437942855201987e-01  7.8452288205813292e-01  6.2807245238412746e-01  5.0358089294265262e-01  4.0776281043374052e-01  3.3630361038340151e-01  2.8457444218504074e-01  2.4816353010288394e-01  2.2320178054499570e-01  2.0650767323920466e-01  1.9559937290880736e-01  1.8862542647645486e-01  1.8425715978536941e-01  1.8157312781916968e-01  1.7995354035162431e-01  1.7899286518877119e-01  1.7843238253242885e-01  1.7811089908700331e-01  1.7793032918691845e-01  1.7783262181813342e-01  1.7778494541555606e-01  1.7777073823463910e-01  1.7778497322036707e-01  1.7783268340255459e-01  1.7793043718182355e-01  1.7811107406327714e-01  1.7843265469587558e-01  1.7899327611936366e-01  1.7995414417396768e-01  1.8157399089734416e-01  1.8425835777273555e-01  1.8862703746727458e-01  1.9560146574427181e-01  2.0651029093867623e-01  2.2320492048585827e-01  2.4816712481250564e-01  2.8457834685966787e-01  3.3630760447867353e-01  4.0776661965151934e-01  5.0358423386124085e-01  6.2807509524960015e-01  7.8452471995909157e-01  9.7438053661323065e-01  1.1965095988732717e+00  1.4467289385719435e+00  1.7178015173464236e+00  2.0000000000000000e+00  2.0000000000000000e+00  1.7093026860552085e+00  1.4300359382114141e+00  1.1721923328759072e+00  9.4321628383429357e-01  7.4742123632602064e-01  5.8599085114477889e-01  4.5745730115284655e-01  3.5846002338105654e-01  2.8457444218504113e-01  2.3104594425082856e-01  1.9333674215630733e-01  1.6746226784815296e-01  1.5014211904066271e-01  1.3881431750132750e-01  1.3156540419928719e-01  1.2702062743499665e-01  1.2422550023884515e-01  1.2253728298023625e-01  1.2153495876269985e-01  1.2094963409516801e-01  1.2061359701148767e-01  1.2042468917026899e-01  1.2032238997916174e-01  1.2027244136891942e-01  1.2025755015566733e-01  1.2027246490300704e-01  1.2032244206894768e-01  1.2042478043715822e-01  1.2061374477525433e-01  1.2094986385100998e-01  1.2153530576333156e-01  1.2253779346278600e-01  1.2422623161124687e-01  1.2702164652924258e-01  1.3156678261484175e-01  1.3881612325131859e-01  1.5014440433545720e-01  1.6746505399657269e-01  1.9334000414426245e-01  2.3104959919354728e-01  2.8457834685966849e-01  3.5846398560672516e-01  4.5746110731386530e-01  5.8599430780447248e-01  7.4742421885048582e-01  9.4321878122965686e-01  1.1721944775137632e+00  1.4300380123576233e+00  1.7093051031849740e+00  2.0000000000000000e+00  2.0000000000000000e+00  1.7033638693318747e+00  1.4183646533890015e+00  1.1551788428530385e+00  9.2139384328471763e-01  7.2141445808476901e-01  5.5646177939829877e-01  4.2505686274412574e-01  3.2379019266761006e-01  2.4816353010288489e-01  1.9333674215630769e-01  1.5468535965681290e-01  1.2814457810502522e-01  1.1036464391594991e-01  9.8726868487249389e-02  9.1273538841956908e-02  8.6596743328348075e-02  8.3718023777457878e-02  8.1977860601905095e-02  8.0943828838108786e-02  8.0339484658208768e-02  7.9992244174800442e-02  7.9796884835631798e-02  7.9691016495846367e-02  7.9639295363606963e-02  7.9623869244432627e-02  7.9639314771889347e-02  7.9691059420504876e-02  7.9796959969135203e-02  7.9992365705407978e-02  8.0339673514614574e-02  8.0944114069292944e-02  8.1978280556376945e-02  8.3718626577954786e-02  8.6597585978239050e-02  9.1274684221059499e-02  9.8728379601215790e-02  1.1036657516545113e-01  1.2814696410506804e-01  1.5468820321162488e-01  1.9334000414426306e-01  2.4816712481250608e-01  3.2379399201293557e-01  4.2506071137105622e-01  5.5646552000095406e-01  7.2141796294092997e-01  9.2139704527372934e-01  1.1551817582567607e+00  1.4183673901922258e+00  1.7033666183197205e+00  2.0000000000000000e+00  2.0000000000000000e+00  1.6993217598709398e+00  1.4104174311736324e+00  1.1435862775421843e+00  9.0651173886773762e-01  7.0366094861357309e-01  5.3628187263338845e-01  4.0289019686797667e-01  3.0004554501020042e-01  2.2320178054499729e-01  1.6746226784815407e-01  1.2814457810502561e-01  1.0112969687559831e-01  8.3020562076630833e-02  7.1159443148844939e-02  6.3557889390171637e-02  5.8784757762780401e-02  5.5844654805022167e-02  5.4066109013649659e-02  5.3008505085932488e-02  5.2389936696626505e-02  5.2034269078299701e-02  5.1834030593329868e-02  5.1725449932708625e-02  5.1672376659017104e-02  5.1656541444205728e-02  5.1672392276795855e-02  5.1725484443659230e-02  5.1834090929290561e-02  5.2034366561107950e-02  5.2390088052823656e-02  5.3008733602689088e-02  5.4066445596685123e-02  5.5845138576493661e-02  5.8785435716636289e-02  6.3558814553291973e-02  7.1160670748175447e-02  8.3022143460448478e-02  1.0113167142852240e-01  1.2814696410506868e-01  1.6746505399657391e-01  2.2320492048585969e-01  3.0004895720703073e-01  4.0289377144785621e-01  5.3628548521904107e-01  7.0366447908877905e-01  9.0651509114196438e-01  1.1435893954606866e+00  1.4104203062389742e+00  1.6993244284328899e+00  2.0000000000000000e+00  2.0000000000000000e+00  1.6966380598687241e+00  1.4051386930185403e+00  1.1358810873921188e+00  8.9661156054044810e-01  6.9183868300348272e-01  5.2282914241659795e-01  3.8809648526231266e-01  2.8418147116173875e-01  2.0650767323920680e-01  1.5014211904066402e-01  1.1036464391595051e-01  8.3020562076631166e-02  6.4681374154273136e-02  5.2663161182009914e-02  4.4956666293747324e-02  4.0114881582849045e-02  3.7130748088719252e-02  3.5324491844134186e-02  3.4249761189818539e-02  3.3620793355795132e-02  3.3258927352491169e-02  3.3055079708522637e-02  3.2944482564001336e-02  3.2890400022230794e-02  3.2874258625504527e-02  3.2890412299612544e-02  3.2944509666587928e-02  3.3055127028251356e-02  3.3259003698570697e-02  3.3620911755744824e-02  3.4249939821448964e-02  3.5324754931397778e-02  3.7131126506436019e-02  4.0115412826363425e-02  4.4957393411656214e-02  5.2664130289045492e-02  6.4682630287025214e-02  8.3022143460448894e-02  1.1036657516545238e-01  1.5014440433545892e-01  2.0651029093867831e-01  2.8418437143957248e-01  3.8809959197620669e-01  5.2283235954071561e-01  6.9184190471470430e-01  8.9661468284393553e-01  1.1358840184561128e+00  1.4051413594994648e+00  1.6966404075178718e+00  2.0000000000000000e+00  2.0000000000000000e+00  1.6948972045234951e+00  1.4017130144340912e+00  1.1308774435395743e+00  8.9017701155205264e-01  6.8414717444840756e-01  5.1406729936688600e-01  3.7845044044662579e-01  2.7382616156833800e-01  1.9559937290880863e-01  1.3881431750132828e-01  9.8726868487249861e-02  7.1159443148845147e-02  5.2663161182009935e-02  4.0536963471338797e-02  3.2757849562522832e-02  2.7868237208278170e-02  2.4853223302024087e-02  2.3027402779797441e-02  2.1940500431402010e-02  2.1304094046103908e-02  2.0937766667040482e-02  2.0731305948351042e-02  2.0619241183492235e-02  2.0564421043599221e-02  2.0548055253515187e-02  2.0564430481561383e-02  2.0619261994753155e-02  2.0731342227654600e-02  2.0937825103634466e-02  2.1304184536707283e-02  2.1940636804905947e-02  2.3027603518887291e-02  2.4853512085085416e-02  2.7868643030591649e-02  3.2758406149391898e-02  4.0537707696953612e-02  5.2664130289045791e-02  7.1160670748176114e-02  9.8728379601217081e-02  1.3881612325132062e-01  1.9560146574427437e-01  2.7382851206499503e-01  3.7845299655499570e-01  5.1406998852924290e-01  6.8414990830365219e-01  8.9017969221672899e-01  1.1308799699523575e+00  1.4017152871959473e+00  1.6948991281038164e+00  2.0000000000000000e+00  2.0000000000000000e+00  1.6937922722339434e+00  1.3995377845318047e+00  1.1276981740334506e+00  8.8608510052567646e-01  6.7925107071625601e-01  5.0848381521978647e-01  3.7229662191719842e-01  2.6721259598724878e-01  1.8862542647645553e-01  1.3156540419928753e-01  9.1273538841957255e-02  6.3557889390171776e-02  4.4956666293747359e-02  3.2757849562522826e-02  2.4929567887309021e-02  2.0007351433959698e-02  1.6971142037337784e-02  1.5131801426254294e-02  1.4036430828462999e-02  1.3394814807357257e-02  1.3025342748377399e-02  1.2817028971161108e-02  1.2703917825341771e-02  1.2648569554981252e-02  1.2632042630115858e-02  1.2648576655829620e-02  1.2703933463799708e-02  1.2817056185690352e-02  1.3025386500317102e-02  1.3394882436100479e-02  1.4036532596020994e-02  1.5131951073331089e-02  1.6971357230293627e-02  2.0007653936401425e-02  2.4929983254424828e-02  3.2758406149392051e-02  4.4957393411656617e-02  6.3558814553292708e-02  9.1274684221060789e-02  1.3156678261484359e-01  1.8862703746727683e-01  2.6721442260988665e-01  3.7229862889665305e-01  5.0848594885185783e-01  6.7925326054893975e-01  8.8608726242419278e-01  1.1277002139043579e+00  1.3995396018743873e+00  1.6937937628173270e+00  2.0000000000000000e+00  2.0000000000000000e+00  1.6931051248328786e+00  1.3981844600878133e+00  1.1257189217931041e+00  8.8353556830322155e-01  6.7619749131042095e-01  5.0499780365525793e-01  3.6845026301670675e-01  2.6307434986838552e-01  1.8425715978536986e-01  1.2702062743499673e-01  8.6596743328348269e-02  5.8784757762780526e-02  4.0114881582849087e