<?xml version="1.0"?>
<VTKFile type="UnstructuredGrid"  version="0.1"  >
<UnstructuredGrid>
<Piece  NumberOfPoints="2601" NumberOfCells="5000">
<Points>
<DataArray  type="Float64"  NumberOfComponents="3"  format="ascii">0 0 0  0.02 0 0  0.04 0 0  0.06 0 0  0.08 0 0  0.1 0 0  0.12 0 0  0.14 0 0  0.16 0 0  0.18 0 0  0.2 0 0  0.22 0 0  0.24 0 0  0.26 0 0  0.28 0 0  0.3 0 0  0.32 0 0  0.34 0 0  0.36 0 0  0.38 0 0  0.4 0 0  0.42 0 0  0.44 0 0  0.46 0 0  0.48 0 0  0.5 0 0  0.52 0 0  0.54 0 0  0.5600000000000001 0 0  0.58 0 0  0.6 0 0  0.62 0 0  0.64 0 0  0.66 0 0  0.68 0 0  0.7 0 0  0.72 0 0  0.74 0 0  0.76 0 0  0.78 0 0  0.8 0 0  0.82 0 0  0.84 0 0  0.86 0 0  0.88 0 0  0.9 0 0  0.92 0 0  0.9399999999999999 0 0  0.96 0 0  0.98 0 0  1 0 0  0 0.02 0  0.02 0.02 0  0.04 0.02 0  0.06 0.02 0  0.08 0.02 0  0.1 0.02 0  0.12 0.02 0  0.14 0.02 0  0.16 0.02 0  0.18 0.02 0  0.2 0.02 0  0.22 0.02 0  0.24 0.02 0  0.26 0.02 0  0.28 0.02 0  0.3 0.02 0  0.32 0.02 0  0.34 0.02 0  0.36 0.02 0  0.38 0.02 0  0.4 0.02 0  0.42 0.02 0  0.44 0.02 0  0.46 0.02 0  0.48 0.02 0  0.5 0.02 0  0.52 0.02 0  0.54 0.02 0  0.5600000000000001 0.02 0  0.58 0.02 0  0.6 0.02 0  0.62 0.02 0  0.64 0.02 0  0.66 0.02 0  0.68 0.02 0  0.7 0.02 0  0.72 0.02 0  0.74 0.02 0  0.76 0.02 0  0.78 0.02 0  0.8 0.02 0  0.82 0.02 0  0.84 0.02 0  0.86 0.02 0  0.88 0.02 0  0.9 0.02 0  0.92 0.02 0  0.9399999999999999 0.02 0  0.96 0.02 0  0.98 0.02 0  1 0.02 0  0 0.04 0  0.02 0.04 0  0.04 0.04 0  0.06 0.04 0  0.08 0.04 0  0.1 0.04 0  0.12 0.04 0  0.14 0.04 0  0.16 0.04 0  0.18 0.04 0  0.2 0.04 0  0.22 0.04 0  0.24 0.04 0  0.26 0.04 0  0.28 0.04 0  0.3 0.04 0  0.32 0.04 0  0.34 0.04 0  0.36 0.04 0  0.38 0.04 0  0.4 0.04 0  0.42 0.04 0  0.44 0.04 0  0.46 0.04 0  0.48 0.04 0  0.5 0.04 0  0.52 0.04 0  0.54 0.04 0  0.5600000000000001 0.04 0  0.58 0.04 0  0.6 0.04 0  0.62 0.04 0  0.64 0.04 0  0.66 0.04 0  0.68 0.04 0  0.7 0.04 0  0.72 0.04 0  0.74 0.04 0  0.76 0.04 0  0.78 0.04 0  0.8 0.04 0  0.82 0.04 0  0.84 0.04 0  0.86 0.04 0  0.88 0.04 0  0.9 0.04 0  0.92 0.04 0  0.9399999999999999 0.04 0  0.96 0.04 0  0.98 0.04 0  1 0.04 0  0 0.06 0  0.02 0.06 0  0.04 0.06 0  0.06 0.06 0  0.08 0.06 0  0.1 0.06 0  0.12 0.06 0  0.14 0.06 0  0.16 0.06 0  0.18 0.06 0  0.2 0.06 0  0.22 0.06 0  0.24 0.06 0  0.26 0.06 0  0.28 0.06 0  0.3 0.06 0  0.32 0.06 0  0.34 0.06 0  0.36 0.06 0  0.38 0.06 0  0.4 0.06 0  0.42 0.06 0  0.44 0.06 0  0.46 0.06 0  0.48 0.06 0  0.5 0.06 0  0.52 0.06 0  0.54 0.06 0  0.5600000000000001 0.06 0  0.58 0.06 0  0.6 0.06 0  0.62 0.06 0  0.64 0.06 0  0.66 0.06 0  0.68 0.06 0  0.7 0.06 0  0.72 0.06 0  0.74 0.06 0  0.76 0.06 0  0.78 0.06 0  0.8 0.06 0  0.82 0.06 0  0.84 0.06 0  0.86 0.06 0  0.88 0.06 0  0.9 0.06 0  0.92 0.06 0  0.9399999999999999 0.06 0  0.96 0.06 0  0.98 0.06 0  1 0.06 0  0 0.08 0  0.02 0.08 0  0.04 0.08 0  0.06 0.08 0  0.08 0.08 0  0.1 0.08 0  0.12 0.08 0  0.14 0.08 0  0.16 0.08 0  0.18 0.08 0  0.2 0.08 0  0.22 0.08 0  0.24 0.08 0  0.26 0.08 0  0.28 0.08 0  0.3 0.08 0  0.32 0.08 0  0.34 0.08 0  0.36 0.08 0  0.38 0.08 0  0.4 0.08 0  0.42 0.08 0  0.44 0.08 0  0.46 0.08 0  0.48 0.08 0  0.5 0.08 0  0.52 0.08 0  0.54 0.08 0  0.5600000000000001 0.08 0  0.58 0.08 0  0.6 0.08 0  0.62 0.08 0  0.64 0.08 0  0.66 0.08 0  0.68 0.08 0  0.7 0.08 0  0.72 0.08 0  0.74 0.08 0  0.76 0.08 0  0.78 0.08 0  0.8 0.08 0  0.82 0.08 0  0.84 0.08 0  0.86 0.08 0  0.88 0.08 0  0.9 0.08 0  0.92 0.08 0  0.9399999999999999 0.08 0  0.96 0.08 0  0.98 0.08 0  1 0.08 0  0 0.1 0  0.02 0.1 0  0.04 0.1 0  0.06 0.1 0  0.08 0.1 0  0.1 0.1 0  0.12 0.1 0  0.14 0.1 0  0.16 0.1 0  0.18 0.1 0  0.2 0.1 0  0.22 0.1 0  0.24 0.1 0  0.26 0.1 0  0.28 0.1 0  0.3 0.1 0  0.32 0.1 0  0.34 0.1 0  0.36 0.1 0  0.38 0.1 0  0.4 0.1 0  0.42 0.1 0  0.44 0.1 0  0.46 0.1 0  0.48 0.1 0  0.5 0.1 0  0.52 0.1 0  0.54 0.1 0  0.5600000000000001 0.1 0  0.58 0.1 0  0.6 0.1 0  0.62 0.1 0  0.64 0.1 0  0.66 0.1 0  0.68 0.1 0  0.7 0.1 0  0.72 0.1 0  0.74 0.1 0  0.76 0.1 0  0.78 0.1 0  0.8 0.1 0  0.82 0.1 0  0.84 0.1 0  0.86 0.1 0  0.88 0.1 0  0.9 0.1 0  0.92 0.1 0  0.9399999999999999 0.1 0  0.96 0.1 0  0.98 0.1 0  1 0.1 0  0 0.12 0  0.02 0.12 0  0.04 0.12 0  0.06 0.12 0  0.08 0.12 0  0.1 0.12 0  0.12 0.12 0  0.14 0.12 0  0.16 0.12 0  0.18 0.12 0  0.2 0.12 0  0.22 0.12 0  0.24 0.12 0  0.26 0.12 0  0.28 0.12 0  0.3 0.12 0  0.32 0.12 0  0.34 0.12 0  0.36 0.12 0  0.38 0.12 0  0.4 0.12 0  0.42 0.12 0  0.44 0.12 0  0.46 0.12 0  0.48 0.12 0  0.5 0.12 0  0.52 0.12 0  0.54 0.12 0  0.5600000000000001 0.12 0  0.58 0.12 0  0.6 0.12 0  0.62 0.12 0  0.64 0.12 0  0.66 0.12 0  0.68 0.12 0  0.7 0.12 0  0.72 0.12 0  0.74 0.12 0  0.76 0.12 0  0.78 0.12 0  0.8 0.12 0  0.82 0.12 0  0.84 0.12 0  0.86 0.12 0  0.88 0.12 0  0.9 0.12 0  0.92 0.12 0  0.9399999999999999 0.12 0  0.96 0.12 0  0.98 0.12 0  1 0.12 0  0 0.14 0  0.02 0.14 0  0.04 0.14 0  0.06 0.14 0  0.08 0.14 0  0.1 0.14 0  0.12 0.14 0  0.14 0.14 0  0.16 0.14 0  0.18 0.14 0  0.2 0.14 0  0.22 0.14 0  0.24 0.14 0  0.26 0.14 0  0.28 0.14 0  0.3 0.14 0  0.32 0.14 0  0.34 0.14 0  0.36 0.14 0  0.38 0.14 0  0.4 0.14 0  0.42 0.14 0  0.44 0.14 0  0.46 0.14 0  0.48 0.14 0  0.5 0.14 0  0.52 0.14 0  0.54 0.14 0  0.5600000000000001 0.14 0  0.58 0.14 0  0.6 0.14 0  0.62 0.14 0  0.64 0.14 0  0.66 0.14 0  0.68 0.14 0  0.7 0.14 0  0.72 0.14 0  0.74 0.14 0  0.76 0.14 0  0.78 0.14 0  0.8 0.14 0  0.82 0.14 0  0.84 0.14 0  0.86 0.14 0  0.88 0.14 0  0.9 0.14 0  0.92 0.14 0  0.9399999999999999 0.14 0  0.96 0.14 0  0.98 0.14 0  1 0.14 0  0 0.16 0  0.02 0.16 0  0.04 0.16 0  0.06 0.16 0  0.08 0.16 0  0.1 0.16 0  0.12 0.16 0  0.14 0.16 0  0.16 0.16 0  0.18 0.16 0  0.2 0.16 0  0.22 0.16 0  0.24 0.16 0  0.26 0.16 0  0.28 0.16 0  0.3 0.16 0  0.32 0.16 0  0.34 0.16 0  0.36 0.16 0  0.38 0.16 0  0.4 0.16 0  0.42 0.16 0  0.44 0.16 0  0.46 0.16 0  0.48 0.16 0  0.5 0.16 0  0.52 0.16 0  0.54 0.16 0  0.5600000000000001 0.16 0  0.58 0.16 0  0.6 0.16 0  0.62 0.16 0  0.64 0.16 0  0.66 0.16 0  0.68 0.16 0  0.7 0.16 0  0.72 0.16 0  0.74 0.16 0  0.76 0.16 0  0.78 0.16 0  0.8 0.16 0  0.82 0.16 0  0.84 0.16 0  0.86 0.16 0  0.88 0.16 0  0.9 0.16 0  0.92 0.16 0  0.9399999999999999 0.16 0  0.96 0.16 0  0.98 0.16 0  1 0.16 0  0 0.18 0  0.02 0.18 0  0.04 0.18 0  0.06 0.18 0  0.08 0.18 0  0.1 0.18 0  0.12 0.18 0  0.14 0.18 0  0.16 0.18 0  0.18 0.18 0  0.2 0.18 0  0.22 0.18 0  0.24 0.18 0  0.26 0.18 0  0.28 0.18 0  0.3 0.18 0  0.32 0.18 0  0.34 0.18 0  0.36 0.18 0  0.38 0.18 0  0.4 0.18 0  0.42 0.18 0  0.44 0.18 0  0.46 0.18 0  0.48 0.18 0  0.5 0.18 0  0.52 0.18 0  0.54 0.18 0  0.5600000000000001 0.18 0  0.58 0.18 0  0.6 0.18 0  0.62 0.18 0  0.64 0.18 0  0.66 0.18 0  0.68 0.18 0  0.7 0.18 0  0.72 0.18 0  0.74 0.18 0  0.76 0.18 0  0.78 0.18 0  0.8 0.18 0  0.82 0.18 0  0.84 0.18 0  0.86 0.18 0  0.88 0.18 0  0.9 0.18 0  0.92 0.18 0  0.9399999999999999 0.18 0  0.96 0.18 0  0.98 0.18 0  1 0.18 0  0 0.2 0  0.02 0.2 0  0.04 0.2 0  0.06 0.2 0  0.08 0.2 0  0.1 0.2 0  0.12 0.2 0  0.14 0.2 0  0.16 0.2 0  0.18 0.2 0  0.2 0.2 0  0.22 0.2 0  0.24 0.2 0  0.26 0.2 0  0.28 0.2 0  0.3 0.2 0  0.32 0.2 0  0.34 0.2 0  0.36 0.2 0  0.38 0.2 0  0.4 0.2 0  0.42 0.2 0  0.44 0.2 0  0.46 0.2 0  0.48 0.2 0  0.5 0.2 0  0.52 0.2 0  0.54 0.2 0  0.5600000000000001 0.2 0  0.58 0.2 0  0.6 0.2 0  0.62 0.2 0  0.64 0.2 0  0.66 0.2 0  0.68 0.2 0  0.7 0.2 0  0.72 0.2 0  0.74 0.2 0  0.76 0.2 0  0.78 0.2 0  0.8 0.2 0  0.82 0.2 0  0.84 0.2 0  0.86 0.2 0  0.88 0.2 0  0.9 0.2 0  0.92 0.2 0  0.9399999999999999 0.2 0  0.96 0.2 0  0.98 0.2 0  1 0.2 0  0 0.22 0  0.02 0.22 0  0.04 0.22 0  0.06 0.22 0  0.08 0.22 0  0.1 0.22 0  0.12 0.22 0  0.14 0.22 0  0.16 0.22 0  0.18 0.22 0  0.2 0.22 0  0.22 0.22 0  0.24 0.22 0  0.26 0.22 0  0.28 0.22 0  0.3 0.22 0  0.32 0.22 0  0.34 0.22 0  0.36 0.22 0  0.38 0.22 0  0.4 0.22 0  0.42 0.22 0  0.44 0.22 0  0.46 0.22 0  0.48 0.22 0  0.5 0.22 0  0.52 0.22 0  0.54 0.22 0  0.5600000000000001 0.22 0  0.58 0.22 0  0.6 0.22 0  0.62 0.22 0  0.64 0.22 0  0.66 0.22 0  0.68 0.22 0  0.7 0.22 0  0.72 0.22 0  0.74 0.22 0  0.76 0.22 0  0.78 0.22 0  0.8 0.22 0  0.82 0.22 0  0.84 0.22 0  0.86 0.22 0  0.88 0.22 0  0.9 0.22 0  0.92 0.22 0  0.9399999999999999 0.22 0  0.96 0.22 0  0.98 0.22 0  1 0.22 0  0 0.24 0  0.02 0.24 0  0.04 0.24 0  0.06 0.24 0  0.08 0.24 0  0.1 0.24 0  0.12 0.24 0  0.14 0.24 0  0.16 0.24 0  0.18 0.24 0  0.2 0.24 0  0.22 0.24 0  0.24 0.24 0  0.26 0.24 0  0.28 0.24 0  0.3 0.24 0  0.32 0.24 0  0.34 0.24 0  0.36 0.24 0  0.38 0.24 0  0.4 0.24 0  0.42 0.24 0  0.44 0.24 0  0.46 0.24 0  0.48 0.24 0  0.5 0.24 0  0.52 0.24 0  0.54 0.24 0  0.5600000000000001 0.24 0  0.58 0.24 0  0.6 0.24 0  0.62 0.24 0  0.64 0.24 0  0.66 0.24 0  0.68 0.24 0  0.7 0.24 0  0.72 0.24 0  0.74 0.24 0  0.76 0.24 0  0.78 0.24 0  0.8 0.24 0  0.82 0.24 0  0.84 0.24 0  0.86 0.24 0  0.88 0.24 0  0.9 0.24 0  0.92 0.24 0  0.9399999999999999 0.24 0  0.96 0.24 0  0.98 0.24 0  1 0.24 0  0 0.26 0  0.02 0.26 0  0.04 0.26 0  0.06 0.26 0  0.08 0.26 0  0.1 0.26 0  0.12 0.26 0  0.14 0.26 0  0.16 0.26 0  0.18 0.26 0  0.2 0.26 0  0.22 0.26 0  0.24 0.26 0  0.26 0.26 0  0.28 0.26 0  0.3 0.26 0  0.32 0.26 0  0.34 0.26 0  0.36 0.26 0  0.38 0.26 0  0.4 0.26 0  0.42 0.26 0  0.44 0.26 0  0.46 0.26 0  0.48 0.26 0  0.5 0.26 0  0.52 0.26 0  0.54 0.26 0  0.5600000000000001 0.26 0  0.58 0.26 0  0.6 0.26 0  0.62 0.26 0  0.64 0.26 0  0.66 0.26 0  0.68 0.26 0  0.7 0.26 0  0.72 0.26 0  0.74 0.26 0  0.76 0.26 0  0.78 0.26 0  0.8 0.26 0  0.82 0.26 0  0.84 0.26 0  0.86 0.26 0  0.88 0.26 0  0.9 0.26 0  0.92 0.26 0  0.9399999999999999 0.26 0  0.96 0.26 0  0.98 0.26 0  1 0.26 0  0 0.28 0  0.02 0.28 0  0.04 0.28 0  0.06 0.28 0  0.08 0.28 0  0.1 0.28 0  0.12 0.28 0  0.14 0.28 0  0.16 0.28 0  0.18 0.28 0  0.2 0.28 0  0.22 0.28 0  0.24 0.28 0  0.26 0.28 0  0.28 0.28 0  0.3 0.28 0  0.32 0.28 0  0.34 0.28 0  0.36 0.28 0  0.38 0.28 0  0.4 0.28 0  0.42 0.28 0  0.44 0.28 0  0.46 0.28 0  0.48 0.28 0  0.5 0.28 0  0.52 0.28 0  0.54 0.28 0  0.5600000000000001 0.28 0  0.58 0.28 0  0.6 0.28 0  0.62 0.28 0  0.64 0.28 0  0.66 0.28 0  0.68 0.28 0  0.7 0.28 0  0.72 0.28 0  0.74 0.28 0  0.76 0.28 0  0.78 0.28 0  0.8 0.28 0  0.82 0.28 0  0.84 0.28 0  0.86 0.28
[...]
<PointData  Scalars="f_12"> 
<DataArray  type="Float64"  Name="f_12"  format="ascii">2.0000000000000000e+00  2.0000000000000000e+00  2.0000000000000000e+00  2.0000000000000000e+00  2.0000000000000000e+00  2.0000000000000000e+00  2.0000000000000000e+00  2.0000000000000000e+00  2.0000000000000000e+00  2.0000000000000000e+00  2.0000000000000000e+00  2.0000000000000000e+00  2.0000000000000000e+00  2.0000000000000000e+00  2.0000000000000000e+00  2.0000000000000000e+00  2.0000000000000000e+00  2.0000000000000000e+00  2.0000000000000000e+00  2.0000000000000000e+00  2.0000000000000000e+00  2.0000000000000000e+00  2.0000000000000000e+00  2.0000000000000000e+00  2.0000000000000000e+00  2.0000000000000000e+00  2.0000000000000000e+00  2.0000000000000000e+00  2.0000000000000000e+00  2.0000000000000000e+00  2.0000000000000000e+00  2.0000000000000000e+00  2.0000000000000000e+00  2.0000000000000000e+00  2.0000000000000000e+00  2.0000000000000000e+00  2.0000000000000000e+00  2.0000000000000000e+00  2.0000000000000000e+00  2.0000000000000000e+00  2.0000000000000000e+00  2.0000000000000000e+00  2.0000000000000000e+00  2.0000000000000000e+00  2.0000000000000000e+00  2.0000000000000000e+00  2.0000000000000000e+00  2.0000000000000000e+00  2.0000000000000000e+00  2.0000000000000000e+00  2.0000000000000000e+00  2.0000000000000000e+00  1.9862128862900121e+00  1.9725768247177462e+00  1.9592400731118784e+00  1.9463397192553840e+00  1.9339986443027657e+00  1.9223220272426762e+00  1.9113948161519627e+00  1.9012802463839618e+00  1.8920194198828637e+00  1.8836318903520677e+00  1.8761171385399593e+00  1.8694567760298351e+00  1.8636172874678396e+00  1.8585531107814761e+00  1.8542098613603242e+00  1.8505275265914978e+00  1.8474434877460568e+00  1.8448952627105486e+00  1.8428229012103576e+00  1.8411710002137232e+00  1.8398903381450427e+00  1.8389391503137473e+00  1.8382840834863521e+00  1.8379008746000414e+00  1.8377747978103249e+00  1.8379009165649216e+00  1.8382841648258741e+00  1.8389392658404387e+00  1.8398904800711362e+00  1.8411711581724655e+00  1.8428230623288828e+00  1.8448954117645577e+00  1.8474436074250782e+00  1.8505275978973352e+00  1.8542098641506974e+00  1.8585530244567090e+00  1.8636170917818478e+00  1.8694564519894978e+00  1.8761166693407463e+00  1.8836312622842477e+00  1.8920186231326384e+00  1.9012792756471324e+00  1.9113936709713242e+00  1.9223207119645618e+00  1.9339971674931804e+00  1.9463380922139155e+00  1.9592383063052150e+00  1.9725749170766229e+00  1.9862107800955129e+00  2.0000000000000000e+00  2.0000000000000000e+00  1.9725768247177482e+00  1.9454553170631643e+00  1.9189289995960692e+00  1.8932705609668119e+00  1.8687243912895317e+00  1.8454996712589349e+00  1.8237653500213784e+00  1.8036471994423500e+00  1.7852269772804692e+00  1.7685435901689683e+00  1.7535960265009507e+00  1.7403477379796515e+00  1.7287320919853857e+00  1.7186584962455504e+00  1.7100188100336968e+00  1.7026936967027329e+00  1.6965586331846876e+00  1.6914893646399758e+00  1.6873666682848081e+00  1.6840803620809814e+00  1.6815325554885248e+00  1.6796401867622957e+00  1.6783369221418698e+00  1.6775745063518872e+00  1.6773236522381678e+00  1.6775745424621207e+00  1.6783369911928672e+00  1.6796402824871726e+00  1.6815326686738010e+00  1.6840804808077088e+00  1.6873667782730180e+00  1.6914894497065032e+00  1.6965586758168483e+00  1.7026936787385465e+00  1.7100187134249545e+00  1.7186583038648449e+00  1.7287317884247513e+00  1.7403473102789284e+00  1.7535954647401657e+00  1.7685428878614600e+00  1.7852261315113196e+00  1.8036462107067266e+00  1.8237642217236665e+00  1.8454984088246962e+00  1.8687230007977493e+00  1.8932690470951421e+00  1.9189273625077716e+00  1.9454535486264206e+00  1.9725749170766220e+00  2.0000000000000000e+00  2.0000000000000000e+00  1.9592400731118795e+00  1.9189289995960688e+00  1.8795023896338012e+00  1.8413654673095594e+00  1.8048814189957010e+00  1.7703611167816566e+00  1.7380556566932626e+00  1.7081519811690551e+00  1.6807716340587209e+00  1.6559724864602439e+00  1.6337530921437535e+00  1.6140591955542170e+00  1.5967918312320766e+00  1.5818164227318972e+00  1.5689723079795885e+00  1.5580821782259919e+00  1.5489610080577687e+00  1.5414241616568680e+00  1.5352944731408749e+00  1.5304082052491885e+00  1.5266198820257477e+00  1.5238060613995181e+00  1.5218681594421719e+00  1.5207344590078269e+00  1.5203614331240851e+00  1.5207344913936254e+00  1.5218682205796812e+00  1.5238061441530322e+00  1.5266199760264700e+00  1.5304082973047199e+00  1.5352945477880631e+00  1.5414242018529805e+00  1.5489609959926580e+00  1.5580820962219752e+00  1.5689721394283072e+00  1.5818161530015640e+00  1.5967914484672145e+00  1.6140586912864145e+00  1.6337524616375718e+00  1.6559717287335247e+00  1.6807707515391188e+00  1.7081509789744136e+00  1.7380545415463284e+00  1.7703598955829598e+00  1.8048800970808221e+00  1.8413640464364041e+00  1.8795008659316588e+00  1.9189273625077712e+00  1.9592383063052166e+00  2.0000000000000000e+00  2.0000000000000000e+00  1.9463397192553828e+00  1.8932705609668090e+00  1.8413654673095594e+00  1.7911577780261181e+00  1.7431255222718260e+00  1.6976778943888784e+00  1.6551454332176281e+00  1.6157742592745463e+00  1.5797244330301452e+00  1.5470722218192046e+00  1.5178158267921573e+00  1.4918839427022730e+00  1.4691464125446712e+00  1.4494261984981427e+00  1.4325119153169328e+00  1.4181702514213010e+00  1.4061577216283212e+00  1.3962313371058563e+00  1.3881579262621568e+00  1.3817219802763401e+00  1.3767320172003599e+00  1.3730255510067828e+00  1.3704728123532539e+00  1.3689793954135105e+00  1.3684880021057322e+00  1.3689794260151609e+00  1.3704728695698327e+00  1.3730256270404286e+00  1.3767321007946400e+00  1.3817220572462199e+00  1.3881579801964501e+00  1.3962313502267085e+00  1.4061576757767127e+00  1.4181701291186235e+00  1.4325117008331578e+00  1.4494258788406400e+00  1.4691459782721088e+00  1.4918833884685536e+00  1.5178151515379612e+00  1.5470714285531864e+00  1.5797235281759385e+00  1.6157732515987204e+00  1.6551443323919823e+00  1.6976767092735323e+00  1.7431242590359652e+00  1.7911564382691851e+00  1.8413640464364063e+00  1.8932690470951454e+00  1.9463380922139160e+00  2.0000000000000000e+00  2.0000000000000000e+00  1.9339986443027650e+00  1.8687243912895304e+00  1.8048814189957005e+00  1.7431255222718256e+00  1.6840445115822782e+00  1.6281415878058128e+00  1.5758232675570447e+00  1.5273922950155863e+00  1.4830456182970024e+00  1.4428771696938822e+00  1.4068848990175713e+00  1.3749812897516354e+00  1.3470064514961895e+00  1.3227428321837302e+00  1.3019306237199841e+00  1.2842830317304323e+00  1.2695007257905897e+00  1.2572849604508127e+00  1.2473490393158675e+00  1.2394279664363936e+00  1.2332862770172250e+00  1.2287241530900708e+00  1.2255820040826300e+00  1.2237437261858817e+00  1.2231388507940655e+00  1.2237437566945923e+00  1.2255820608694452e+00  1.2287242278968402e+00  1.2332863579645255e+00  1.2394280386307146e+00  1.2473490856484517e+00  1.2572849625664568e+00  1.2695006651871672e+00  1.2842828909290906e+00  1.3019303874252253e+00  1.3227424883357188e+00  1.3470059921090902e+00  1.3749807114349795e+00  1.4068842030947706e+00  1.4428763618627498e+00  1.4830447078190983e+00  1.5273912934693976e+00  1.5758221872385496e+00  1.6281404399036394e+00  1.6840433042910843e+00  1.7431242590359672e+00  1.8048800970808254e+00  1.8687230007977540e+00  1.9339971674931808e+00  2.0000000000000000e+00  2.0000000000000000e+00  1.9223220272426753e+00  1.8454996712589344e+00  1.7703611167816578e+00  1.6976778943888782e+00  1.6281415878058130e+00  1.5623442804573560e+00  1.5007643511493138e+00  1.4437581318993289e+00  1.3915575202149666e+00  1.3442732400088708e+00  1.3019031043264602e+00  1.2643443749327445e+00  1.2314091535045044e+00  1.2028416801874582e+00  1.1783364505086156e+00  1.1575561754572801e+00  1.1401487806158275e+00  1.1257628445309584e+00  1.1140610903115680e+00  1.1047317465980502e+00  1.0974977677576412e+00  1.0921240368217395e+00  1.0884227621049511e+00  1.0862573184912803e+00  1.0855447802242084e+00  1.0862573503006199e+00  1.0884228213535638e+00  1.0921241149864191e+00  1.0974978525955192e+00  1.1047318227931771e+00  1.1140611403234653e+00  1.1257628496207523e+00  1.1401487220071065e+00  1.1575560355672530e+00  1.1783362141637617e+00  1.2028413357209731e+00  1.2314086936247868e+00  1.2643437972568001e+00  1.3019024114914353e+00  1.3442724393090209e+00  1.3915566227573881e+00  1.4437571513248157e+00  1.5007633020181939e+00  1.5623431764473257e+00  1.6281404399036419e+00  1.6976767092735356e+00  1.7703598955829667e+00  1.8454984088247013e+00  1.9223207119645642e+00  2.0000000000000000e+00  2.0000000000000000e+00  1.9113948161519618e+00  1.8237653500213766e+00  1.7380556566932648e+00  1.6551454332176281e+00  1.5758232675570423e+00  1.5007643511493143e+00  1.4305142848778016e+00  1.3654795633905994e+00  1.3059248436220525e+00  1.2519766499619109e+00  1.2036327800499109e+00  1.1607763810196612e+00  1.1231934832066186e+00  1.0905927108671412e+00  1.0626259292810760e+00  1.0389087169696924e+00  1.0190397463690699e+00  1.0026183888407407e+00  9.8926010332772940e-01  9.7860939821615744e-01  9.7035035387931934e-01  9.6421484573348004e-01  9.5998870735213893e-01  9.5751611895040656e-01  9.5670250197373263e-01  9.5751615312201410e-01  9.5998877128443927e-01  9.6421493082403409e-01  9.7035044777256951e-01  9.7860948545748949e-01  9.8926016622219959e-01  1.0026184084921312e+00  1.0190397038566239e+00  1.0389085945982675e+00  1.0626257118191591e+00  1.0905923866703613e+00  1.1231930451165297e+00  1.1607758269323740e+00  1.2036321130690526e+00  1.2519758780848764e+00  1.3059239789555077e+00  1.3654786209451546e+00  1.4305132810460151e+00  1.5007633020181943e+00  1.5758221872385516e+00  1.6551443323919872e+00  1.7380545415463338e+00  1.8237642217236707e+00  1.9113936709713260e+00  2.0000000000000000e+00  2.0000000000000000e+00  1.9012802463839606e+00  1.8036471994423504e+00  1.7081519811690542e+00  1.6157742592745452e+00  1.5273922950155872e+00  1.4437581318993289e+00  1.3654795633906007e+00  1.2930095310095939e+00  1.2266430714413863e+00  1.1665214269824429e+00  1.1126425014734667e+00  1.0648765164856506e+00  1.0229855189007098e+00  9.8664531563255298e-01  9.5546845517027412e-01  9.2902701916759389e-01  9.0687420348788650e-01  8.8856392657874783e-01  8.7366797372098270e-01  8.6179044181016695e-01  8.5257946955727237e-01  8.4573640760112700e-01  8.4102269412000219e-01  8.3826475262272004e-01  8.3735722368938670e-01  8.3826478986770880e-01  8.4102276424927802e-01  8.4573650210596607e-01  8.5257957620635938e-01  8.6179054528537080e-01  8.7366805645402390e-01  8.8856396976667829e-01  9.0687418824768795e-01  9.2902692776932039e-01  9.5546827226747166e-01  9.8664502939209098e-01  1.0229851219262394e+00  1.0648760064330767e+00  1.1126418812755949e+00  1.1665207046329367e+00  1.2266422593333022e+00  1.2930086448757436e+00  1.3654786209451582e+00  1.4437571513248191e+00  1.5273912934694029e+00  1.6157732515987266e+00  1.7081509789744205e+00  1.8036462107067344e+00  1.9012792756471362e+00  2.0000000000000000e+00  2.0000000000000000e+00  1.8920194198828650e+00  1.7852269772804690e+00  1.6807716340587195e+00  1.5797244330301425e+00  1.4830456182970020e+00  1.3915575202149659e+00  1.3059248436220543e+00  1.2266430714413867e+00  1.1540351142004344e+00  1.0882557854239205e+00  1.0293032108856957e+00  9.7703592202198242e-01  9.3119416114039733e-01  8.9142384333521230e-01  8.5730166755985460e-01  8.2836002564143385e-01  8.0411059373925586e-01  7.8406577273282463e-01  7.6775743945127672e-01  7.5475275029962563e-01  7.4466697939468363e-01  7.3717355867815348e-01  7.3201160898218043e-01  7.2899130702969028e-01  7.2799742820229207e-01  7.2899134770634877e-01  7.3201168610662426e-01  7.3717366399165973e-01  7.4466710100751099e-01  7.5475287328876917e-01  7.6775754665014195e-01  7.8406584569443261e-01  8.0411061383817928e-01  8.2835997526001437e-01  8.5730153128454367e-01  8.9142360907274387e-01  9.3119382105523141e-01  9.7703547319949990e-01  1.0293026556421156e+00  1.0882551312138584e+00  1.1540343731143794e+00  1.2266422593333044e+00  1.3059239789555133e+00  1.3915566227573921e+00  1.4830447078191042e+00  1.5797235281759461e+00  1.6807707515391261e+00  1.7852261315113269e+00  1.8920186231326428e+00  2.0000000000000000e+00  2.0000000000000000e+00  1.8836318903520681e+00  1.7685435901689701e+00  1.6559724864602474e+00  1.5470722218192043e+00  1.4428771696938831e+00  1.3442732400088711e+00  1.2519766499619143e+00  1.1665214269824458e+00  1.0882557854239225e+00  1.0173469263550539e+00  9.5379330202350165e-01  8.9744300156380741e-01  8.4801667462802999e-01  8.0513332017876948e-01  7.6833731834255681e-01  7.3712525093727999e-01  7.1097130947351395e-01  6.8935039249699126e-01  6.7175831179594814e-01  6.5772882780239372e-01  6.4684749338547520e-01  6.3876248480250153e-01  6.3319272950834371e-01  6.2993370101658430e-01  6.2886124570513435e-01  6.2993374514394707e-01  6.3319281373640379e-01  6.3876260125845785e-01  6.4684763071304485e-01  6.5772897170749089e-01  6.7175844577138688e-01  6.8935049871222320e-01  7.1097136980063769e-01  7.3712524806652002e-01  7.6833723692189049e-01  8.0513314789692447e-01  8.4801640315144755e-01  8.9744262723960333e-01  9.5379282627412132e-01  1.0173463557162215e+00  1.0882551312138617e+00  1.1665207046329413e+00  1.2519758780848838e+00  1.3442724393090295e+00  1.4428763618627580e+00  1.5470714285531970e+00  1.6559717287335356e+00  1.7685428878614691e+00  1.8836312622842515e+00  2.0000000000000000e+00  2.0000000000000000e+00  1.8761171385399598e+00  1.7535960265009560e+00  1.6337530921437575e+00  1.5178158267921604e+00  1.4068848990175753e+00  1.3019031043264651e+00  1.2036327800499171e+00  1.1126425014734731e+00  1.0293032108857001e+00  9.5379330202350410e-01  8.8611164272709386e-01  8.2609710926212221e-01  7.7345295046150797e-01  7.2777420431247086e-01  6.8857644291953335e-01  6.5532429949203019e-01  6.2745849962503097e-01  6.0442044088702751e-01  5.8567370211396041e-01  5.7072218342713832e-01  5.5912485316850036e-01  5.5050729019786238e-01  5.4457034937341786e-01  5.4109634258220363e-01  5.3995312231523807e-01  5.4109638986809694e-01  5.4457044017843159e-01  5.5050741714751583e-01  5.5912500560117306e-01  5.7072234787883869e-01  5.8567386296638757e-01  6.0442058116962016e-01  6.2745860194870107e-01  6.5532434707604070e-01  6.8857642065595170e-01  7.2777409979789842e-01  7.7345275491686771e-01  8.2609681826107528e-01  8.8611125666412283e-01  9.5379282627412454e-01  1.0293026556421205e+00  1.1126418812756016e+00  1.2036321130690621e+00  1.3019024114914448e+00  1.4068842030947817e+00  1.5178151515379736e+00  1.6337524616375858e+00  1.7535954647401761e+00  1.8761166693407507e+00  2.0000000000000000e+00  2.0000000000000000e+00  1.8694567760298368e+00  1.7403477379796548e+00  1.6140591955542196e+00  1.4918839427022768e+00  1.3749812897516407e+00  1.2643443749327505e+00  1.1607763810196685e+00  1.0648765164856595e+00  9.7703592202199119e-01  8.9744300156381285e-01  8.2609710926212487e-01  7.6282909301862034e-01  7.0732692625715188e-01  6.5916455861484013e-01  6.1783217174832894e-01  5.8276621284713015e-01  5.5337786053859916e-01  5.2907891596368106e-01  5.0930446649572514e-01  4.9353200572494788e-01  4.8129698286396727e-01  4.7220497817370716e-01  4.6594084786210088e-01  4.6227525007718834e-01  4.6106895824215643e-01  4.6227529995850275e-01  4.6594094416184184e-01  4.7220511410238364e-01  4.8129714858122097e-01  4.9353218875911364e-01  5.0930465230919697e-01  5.2907908865928843e-01  5.5337800369103052e-01  5.8276631042911620e-01  6.1783220910584913e-01  6.5916452343180088e-01  7.0732680944086535e-01  7.6282888943559835e-01  8.2609681826107972e-01  8.9744262723961032e-01  9.7703547319950967e-01  1.0648760064330869e+00  1.1607758269323873e+00  1.2643437972568146e+00  1.3749807114349957e+00  1.4918833884685687e+00  1.6140586912864323e+00  1.7403473102789431e+00  1.8694564519895065e+00  2.0000000000000000e+00  2.0000000000000000e+00  1.8636172874678409e+00  1.7287320919853859e+00  1.5967918312320781e+00  1.4691464125446752e+00  1.3470064514961964e+00  1.2314091535045113e+00  1.1231934832066304e+00  1.0229855189007218e+00  9.3119416114040821e-01  8.4801667462803654e-01  7.7345295046151219e-01  7.0732692625715432e-01  6.4931332079177306e-01  5.9896773396423098e-01  5.5575822019557153e-01  5.1909663721908073e-01  4.8836836592278332e-01  4.6295934914613390e-01  4.4227976703142574e-01  4.2578401704245178e-01  4.1298696879263813e-01  4.0347669703540817e-01  3.9692404957183941e-01  3.9308947820633011e-01  3.9182755556194743e-01  3.9308952989848017e-01  3.9692414982709329e-01  4.0347683970919834e-01  4.1298714495568883e-01  4.2578421533462441e-01  4.4227997414309023e-01  4.6295955042627351e-01  4.8836854610370312e-01  5.1909678123514991e-01  5.5575831405963838e-01  5.9896776565255327e-01  6.4931328107916497e-01  7.0732680944086901e-01  7.7345275491687671e-01  8.4801640315145810e-01  9.3119382105524307e-01  1.0229851219262529e+00  1.1231930451165459e+00  1.2314086936248052e+00  1.3470059921091082e+00  1.4691459782721281e+00  1.5967914484672356e+00  1.7287317884247690e+00  1.8636170917818595e+00  2.0000000000000000e+00  2.0000000000000000e+00  1.8585531107814779e+00  1.7186584962455527e+00  1.5818164227319003e+00  1.4494261984981451e+00  1.3227428321837342e+00  1.2028416801874633e+00  1.0905927108671476e+00  9.8664531563255953e-01  8.9142384333521818e-01  8.0513332017877370e-01  7.2777420431247342e-01  6.5916455861484102e-01  5.9896773396423064e-01  5.4672354518650634e-01  5.0188098063865705e-01  4.6383068651040482e-01  4.3193577053646848e-01  4.0555983414399704e-01  3.8409152461741036e-01  3.6696526170736538e-01  3.5367810589428411e-01  3.4380297715370328e-01  3.3699859214680200e-01  3.3301656194201101e-01  3.3170608715421024e-01  3.3301661449412739e-01  3.3699869447207537e-01  3.4380312378606348e-01  3.5367828886842151e-01  3.6696547084939352e-01  3.8409174794477441e-01  4.0556005837718223e-01  4.3193598171740027e-01  4.6383087071182866e-01  5.0188112473664603e-01  5.4672363765657861e-01  5.9896776565255594e-01  6.5916452343180676e-01  7.2777409979790797e-01  8.0513314789693735e-01  8.9142360907275919e-01  9.8664502939210763e-01  1.0905923866703806e+00  1.2028413357209926e+00  1.3227424883357415e+00  1.4494258788406638e+00  1.5818161530015871e+00  1.7186583038648651e+00  1.8585530244567201e+00  2.0000000000000000e+00  2.0000000000000000e+00  1.8542098613603253e+00  1.7100188100337010e+00  1.5689723079795890e+00  1.4325119153169337e+00  1.3019306237199875e+00  1.1783364505086180e+00  1.0626259292810802e+00  9.5546845517027834e-01  8.5730166755985782e-01  7.6833731834255981e-01  6.8857644291953479e-01  6.1783217174832861e-01  5.5575822019557131e-01  5.0188098063865649e-01  4.5563320066932056e-01  4.1638743663026628e-01  3.8348778365943997e-01  3.5627875796380237e-01  3.3413060049205373e-01  3.1646064448710504e-01  3.0275071133019443e-01  2.9256074791245223e-01  2.8553908270583772e-01  2.8142975431831407e-01  2.8007736123032029e-01  2.8142980667051759e-01  2.8553918498491310e-01  2.9256089533976715e-01  3.0275089692226520e-01  3.1646085928785844e-01  3.3413083389675041e-01  3.5627899813972719e-01  3.8348801806233290e-01  4.1638765260657978e-01  4.5563338612385701e-01  5.0188112473664781e-01  5.5575831405964260e-01  6.1783220910585590e-01  6.8857642065596225e-01  7.6833723692190337e-01  8.5730153128455888e-01  9.5546827226748932e-01  1.0626257118191789e+00  1.1783362141637825e+00  1.3019303874252484e+00  1.4325117008331811e+00  1.5689721394283291e+00  1.7100187134249745e+00  1.8542098641507097e+00  2.0000000000000000e+00  2.0000000000000000e+00  1.8505275265914976e+00  1.7026936967027331e+00  1.5580821782259897e+00  1.4181702514212990e+00  1.2842830317304343e+00  1.1575561754572827e+00  1.0389087169696958e+00  9.2902701916759622e-01  8.2836002564143685e-01  7.3712525093728143e-01  6.5532429949203175e-01  5.8276621284713037e-01  5.1909663721908117e