<?xml version="1.0"?>
<VTKFile type="UnstructuredGrid"  version="0.1"  >
<UnstructuredGrid>
<Piece  NumberOfPoints="2601" NumberOfCells="5000">
<Points>
<DataArray  type="Float64"  NumberOfComponents="3"  format="ascii">0 0 0  0.02 0 0  0.04 0 0  0.06 0 0  0.08 0 0  0.1 0 0  0.12 0 0  0.14 0 0  0.16 0 0  0.18 0 0  0.2 0 0  0.22 0 0  0.24 0 0  0.26 0 0  0.28 0 0  0.3 0 0  0.32 0 0  0.34 0 0  0.36 0 0  0.38 0 0  0.4 0 0  0.42 0 0  0.44 0 0  0.46 0 0  0.48 0 0  0.5 0 0  0.52 0 0  0.54 0 0  0.5600000000000001 0 0  0.58 0 0  0.6 0 0  0.62 0 0  0.64 0 0  0.66 0 0  0.68 0 0  0.7 0 0  0.72 0 0  0.74 0 0  0.76 0 0  0.78 0 0  0.8 0 0  0.82 0 0  0.84 0 0  0.86 0 0  0.88 0 0  0.9 0 0  0.92 0 0  0.9399999999999999 0 0  0.96 0 0  0.98 0 0  1 0 0  0 0.02 0  0.02 0.02 0  0.04 0.02 0  0.06 0.02 0  0.08 0.02 0  0.1 0.02 0  0.12 0.02 0  0.14 0.02 0  0.16 0.02 0  0.18 0.02 0  0.2 0.02 0  0.22 0.02 0  0.24 0.02 0  0.26 0.02 0  0.28 0.02 0  0.3 0.02 0  0.32 0.02 0  0.34 0.02 0  0.36 0.02 0  0.38 0.02 0  0.4 0.02 0  0.42 0.02 0  0.44 0.02 0  0.46 0.02 0  0.48 0.02 0  0.5 0.02 0  0.52 0.02 0  0.54 0.02 0  0.5600000000000001 0.02 0  0.58 0.02 0  0.6 0.02 0  0.62 0.02 0  0.64 0.02 0  0.66 0.02 0  0.68 0.02 0  0.7 0.02 0  0.72 0.02 0  0.74 0.02 0  0.76 0.02 0  0.78 0.02 0  0.8 0.02 0  0.82 0.02 0  0.84 0.02 0  0.86 0.02 0  0.88 0.02 0  0.9 0.02 0  0.92 0.02 0  0.9399999999999999 0.02 0  0.96 0.02 0  0.98 0.02 0  1 0.02 0  0 0.04 0  0.02 0.04 0  0.04 0.04 0  0.06 0.04 0  0.08 0.04 0  0.1 0.04 0  0.12 0.04 0  0.14 0.04 0  0.16 0.04 0  0.18 0.04 0  0.2 0.04 0  0.22 0.04 0  0.24 0.04 0  0.26 0.04 0  0.28 0.04 0  0.3 0.04 0  0.32 0.04 0  0.34 0.04 0  0.36 0.04 0  0.38 0.04 0  0.4 0.04 0  0.42 0.04 0  0.44 0.04 0  0.46 0.04 0  0.48 0.04 0  0.5 0.04 0  0.52 0.04 0  0.54 0.04 0  0.5600000000000001 0.04 0  0.58 0.04 0  0.6 0.04 0  0.62 0.04 0  0.64 0.04 0  0.66 0.04 0  0.68 0.04 0  0.7 0.04 0  0.72 0.04 0  0.74 0.04 0  0.76 0.04 0  0.78 0.04 0  0.8 0.04 0  0.82 0.04 0  0.84 0.04 0  0.86 0.04 0  0.88 0.04 0  0.9 0.04 0  0.92 0.04 0  0.9399999999999999 0.04 0  0.96 0.04 0  0.98 0.04 0  1 0.04 0  0 0.06 0  0.02 0.06 0  0.04 0.06 0  0.06 0.06 0  0.08 0.06 0  0.1 0.06 0  0.12 0.06 0  0.14 0.06 0  0.16 0.06 0  0.18 0.06 0  0.2 0.06 0  0.22 0.06 0  0.24 0.06 0  0.26 0.06 0  0.28 0.06 0  0.3 0.06 0  0.32 0.06 0  0.34 0.06 0  0.36 0.06 0  0.38 0.06 0  0.4 0.06 0  0.42 0.06 0  0.44 0.06 0  0.46 0.06 0  0.48 0.06 0  0.5 0.06 0  0.52 0.06 0  0.54 0.06 0  0.5600000000000001 0.06 0  0.58 0.06 0  0.6 0.06 0  0.62 0.06 0  0.64 0.06 0  0.66 0.06 0  0.68 0.06 0  0.7 0.06 0  0.72 0.06 0  0.74 0.06 0  0.76 0.06 0  0.78 0.06 0  0.8 0.06 0  0.82 0.06 0  0.84 0.06 0  0.86 0.06 0  0.88 0.06 0  0.9 0.06 0  0.92 0.06 0  0.9399999999999999 0.06 0  0.96 0.06 0  0.98 0.06 0  1 0.06 0  0 0.08 0  0.02 0.08 0  0.04 0.08 0  0.06 0.08 0  0.08 0.08 0  0.1 0.08 0  0.12 0.08 0  0.14 0.08 0  0.16 0.08 0  0.18 0.08 0  0.2 0.08 0  0.22 0.08 0  0.24 0.08 0  0.26 0.08 0  0.28 0.08 0  0.3 0.08 0  0.32 0.08 0  0.34 0.08 0  0.36 0.08 0  0.38 0.08 0  0.4 0.08 0  0.42 0.08 0  0.44 0.08 0  0.46 0.08 0  0.48 0.08 0  0.5 0.08 0  0.52 0.08 0  0.54 0.08 0  0.5600000000000001 0.08 0  0.58 0.08 0  0.6 0.08 0  0.62 0.08 0  0.64 0.08 0  0.66 0.08 0  0.68 0.08 0  0.7 0.08 0  0.72 0.08 0  0.74 0.08 0  0.76 0.08 0  0.78 0.08 0  0.8 0.08 0  0.82 0.08 0  0.84 0.08 0  0.86 0.08 0  0.88 0.08 0  0.9 0.08 0  0.92 0.08 0  0.9399999999999999 0.08 0  0.96 0.08 0  0.98 0.08 0  1 0.08 0  0 0.1 0  0.02 0.1 0  0.04 0.1 0  0.06 0.1 0  0.08 0.1 0  0.1 0.1 0  0.12 0.1 0  0.14 0.1 0  0.16 0.1 0  0.18 0.1 0  0.2 0.1 0  0.22 0.1 0  0.24 0.1 0  0.26 0.1 0  0.28 0.1 0  0.3 0.1 0  0.32 0.1 0  0.34 0.1 0  0.36 0.1 0  0.38 0.1 0  0.4 0.1 0  0.42 0.1 0  0.44 0.1 0  0.46 0.1 0  0.48 0.1 0  0.5 0.1 0  0.52 0.1 0  0.54 0.1 0  0.5600000000000001 0.1 0  0.58 0.1 0  0.6 0.1 0  0.62 0.1 0  0.64 0.1 0  0.66 0.1 0  0.68 0.1 0  0.7 0.1 0  0.72 0.1 0  0.74 0.1 0  0.76 0.1 0  0.78 0.1 0  0.8 0.1 0  0.82 0.1 0  0.84 0.1 0  0.86 0.1 0  0.88 0.1 0  0.9 0.1 0  0.92 0.1 0  0.9399999999999999 0.1 0  0.96 0.1 0  0.98 0.1 0  1 0.1 0  0 0.12 0  0.02 0.12 0  0.04 0.12 0  0.06 0.12 0  0.08 0.12 0  0.1 0.12 0  0.12 0.12 0  0.14 0.12 0  0.16 0.12 0  0.18 0.12 0  0.2 0.12 0  0.22 0.12 0  0.24 0.12 0  0.26 0.12 0  0.28 0.12 0  0.3 0.12 0  0.32 0.12 0  0.34 0.12 0  0.36 0.12 0  0.38 0.12 0  0.4 0.12 0  0.42 0.12 0  0.44 0.12 0  0.46 0.12 0  0.48 0.12 0  0.5 0.12 0  0.52 0.12 0  0.54 0.12 0  0.5600000000000001 0.12 0  0.58 0.12 0  0.6 0.12 0  0.62 0.12 0  0.64 0.12 0  0.66 0.12 0  0.68 0.12 0  0.7 0.12 0  0.72 0.12 0  0.74 0.12 0  0.76 0.12 0  0.78 0.12 0  0.8 0.12 0  0.82 0.12 0  0.84 0.12 0  0.86 0.12 0  0.88 0.12 0  0.9 0.12 0  0.92 0.12 0  0.9399999999999999 0.12 0  0.96 0.12 0  0.98 0.12 0  1 0.12 0  0 0.14 0  0.02 0.14 0  0.04 0.14 0  0.06 0.14 0  0.08 0.14 0  0.1 0.14 0  0.12 0.14 0  0.14 0.14 0  0.16 0.14 0  0.18 0.14 0  0.2 0.14 0  0.22 0.14 0  0.24 0.14 0  0.26 0.14 0  0.28 0.14 0  0.3 0.14 0  0.32 0.14 0  0.34 0.14 0  0.36 0.14 0  0.38 0.14 0  0.4 0.14 0  0.42 0.14 0  0.44 0.14 0  0.46 0.14 0  0.48 0.14 0  0.5 0.14 0  0.52 0.14 0  0.54 0.14 0  0.5600000000000001 0.14 0  0.58 0.14 0  0.6 0.14 0  0.62 0.14 0  0.64 0.14 0  0.66 0.14 0  0.68 0.14 0  0.7 0.14 0  0.72 0.14 0  0.74 0.14 0  0.76 0.14 0  0.78 0.14 0  0.8 0.14 0  0.82 0.14 0  0.84 0.14 0  0.86 0.14 0  0.88 0.14 0  0.9 0.14 0  0.92 0.14 0  0.9399999999999999 0.14 0  0.96 0.14 0  0.98 0.14 0  1 0.14 0  0 0.16 0  0.02 0.16 0  0.04 0.16 0  0.06 0.16 0  0.08 0.16 0  0.1 0.16 0  0.12 0.16 0  0.14 0.16 0  0.16 0.16 0  0.18 0.16 0  0.2 0.16 0  0.22 0.16 0  0.24 0.16 0  0.26 0.16 0  0.28 0.16 0  0.3 0.16 0  0.32 0.16 0  0.34 0.16 0  0.36 0.16 0  0.38 0.16 0  0.4 0.16 0  0.42 0.16 0  0.44 0.16 0  0.46 0.16 0  0.48 0.16 0  0.5 0.16 0  0.52 0.16 0  0.54 0.16 0  0.5600000000000001 0.16 0  0.58 0.16 0  0.6 0.16 0  0.62 0.16 0  0.64 0.16 0  0.66 0.16 0  0.68 0.16 0  0.7 0.16 0  0.72 0.16 0  0.74 0.16 0  0.76 0.16 0  0.78 0.16 0  0.8 0.16 0  0.82 0.16 0  0.84 0.16 0  0.86 0.16 0  0.88 0.16 0  0.9 0.16 0  0.92 0.16 0  0.9399999999999999 0.16 0  0.96 0.16 0  0.98 0.16 0  1 0.16 0  0 0.18 0  0.02 0.18 0  0.04 0.18 0  0.06 0.18 0  0.08 0.18 0  0.1 0.18 0  0.12 0.18 0  0.14 0.18 0  0.16 0.18 0  0.18 0.18 0  0.2 0.18 0  0.22 0.18 0  0.24 0.18 0  0.26 0.18 0  0.28 0.18 0  0.3 0.18 0  0.32 0.18 0  0.34 0.18 0  0.36 0.18 0  0.38 0.18 0  0.4 0.18 0  0.42 0.18 0  0.44 0.18 0  0.46 0.18 0  0.48 0.18 0  0.5 0.18 0  0.52 0.18 0  0.54 0.18 0  0.5600000000000001 0.18 0  0.58 0.18 0  0.6 0.18 0  0.62 0.18 0  0.64 0.18 0  0.66 0.18 0  0.68 0.18 0  0.7 0.18 0  0.72 0.18 0  0.74 0.18 0  0.76 0.18 0  0.78 0.18 0  0.8 0.18 0  0.82 0.18 0  0.84 0.18 0  0.86 0.18 0  0.88 0.18 0  0.9 0.18 0  0.92 0.18 0  0.9399999999999999 0.18 0  0.96 0.18 0  0.98 0.18 0  1 0.18 0  0 0.2 0  0.02 0.2 0  0.04 0.2 0  0.06 0.2 0  0.08 0.2 0  0.1 0.2 0  0.12 0.2 0  0.14 0.2 0  0.16 0.2 0  0.18 0.2 0  0.2 0.2 0  0.22 0.2 0  0.24 0.2 0  0.26 0.2 0  0.28 0.2 0  0.3 0.2 0  0.32 0.2 0  0.34 0.2 0  0.36 0.2 0  0.38 0.2 0  0.4 0.2 0  0.42 0.2 0  0.44 0.2 0  0.46 0.2 0  0.48 0.2 0  0.5 0.2 0  0.52 0.2 0  0.54 0.2 0  0.5600000000000001 0.2 0  0.58 0.2 0  0.6 0.2 0  0.62 0.2 0  0.64 0.2 0  0.66 0.2 0  0.68 0.2 0  0.7 0.2 0  0.72 0.2 0  0.74 0.2 0  0.76 0.2 0  0.78 0.2 0  0.8 0.2 0  0.82 0.2 0  0.84 0.2 0  0.86 0.2 0  0.88 0.2 0  0.9 0.2 0  0.92 0.2 0  0.9399999999999999 0.2 0  0.96 0.2 0  0.98 0.2 0  1 0.2 0  0 0.22 0  0.02 0.22 0  0.04 0.22 0  0.06 0.22 0  0.08 0.22 0  0.1 0.22 0  0.12 0.22 0  0.14 0.22 0  0.16 0.22 0  0.18 0.22 0  0.2 0.22 0  0.22 0.22 0  0.24 0.22 0  0.26 0.22 0  0.28 0.22 0  0.3 0.22 0  0.32 0.22 0  0.34 0.22 0  0.36 0.22 0  0.38 0.22 0  0.4 0.22 0  0.42 0.22 0  0.44 0.22 0  0.46 0.22 0  0.48 0.22 0  0.5 0.22 0  0.52 0.22 0  0.54 0.22 0  0.5600000000000001 0.22 0  0.58 0.22 0  0.6 0.22 0  0.62 0.22 0  0.64 0.22 0  0.66 0.22 0  0.68 0.22 0  0.7 0.22 0  0.72 0.22 0  0.74 0.22 0  0.76 0.22 0  0.78 0.22 0  0.8 0.22 0  0.82 0.22 0  0.84 0.22 0  0.86 0.22 0  0.88 0.22 0  0.9 0.22 0  0.92 0.22 0  0.9399999999999999 0.22 0  0.96 0.22 0  0.98 0.22 0  1 0.22 0  0 0.24 0  0.02 0.24 0  0.04 0.24 0  0.06 0.24 0  0.08 0.24 0  0.1 0.24 0  0.12 0.24 0  0.14 0.24 0  0.16 0.24 0  0.18 0.24 0  0.2 0.24 0  0.22 0.24 0  0.24 0.24 0  0.26 0.24 0  0.28 0.24 0  0.3 0.24 0  0.32 0.24 0  0.34 0.24 0  0.36 0.24 0  0.38 0.24 0  0.4 0.24 0  0.42 0.24 0  0.44 0.24 0  0.46 0.24 0  0.48 0.24 0  0.5 0.24 0  0.52 0.24 0  0.54 0.24 0  0.5600000000000001 0.24 0  0.58 0.24 0  0.6 0.24 0  0.62 0.24 0  0.64 0.24 0  0.66 0.24 0  0.68 0.24 0  0.7 0.24 0  0.72 0.24 0  0.74 0.24 0  0.76 0.24 0  0.78 0.24 0  0.8 0.24 0  0.82 0.24 0  0.84 0.24 0  0.86 0.24 0  0.88 0.24 0  0.9 0.24 0  0.92 0.24 0  0.9399999999999999 0.24 0  0.96 0.24 0  0.98 0.24 0  1 0.24 0  0 0.26 0  0.02 0.26 0  0.04 0.26 0  0.06 0.26 0  0.08 0.26 0  0.1 0.26 0  0.12 0.26 0  0.14 0.26 0  0.16 0.26 0  0.18 0.26 0  0.2 0.26 0  0.22 0.26 0  0.24 0.26 0  0.26 0.26 0  0.28 0.26 0  0.3 0.26 0  0.32 0.26 0  0.34 0.26 0  0.36 0.26 0  0.38 0.26 0  0.4 0.26 0  0.42 0.26 0  0.44 0.26 0  0.46 0.26 0  0.48 0.26 0  0.5 0.26 0  0.52 0.26 0  0.54 0.26 0  0.5600000000000001 0.26 0  0.58 0.26 0  0.6 0.26 0  0.62 0.26 0  0.64 0.26 0  0.66 0.26 0  0.68 0.26 0  0.7 0.26 0  0.72 0.26 0  0.74 0.26 0  0.76 0.26 0  0.78 0.26 0  0.8 0.26 0  0.82 0.26 0  0.84 0.26 0  0.86 0.26 0  0.88 0.26 0  0.9 0.26 0  0.92 0.26 0  0.9399999999999999 0.26 0  0.96 0.26 0  0.98 0.26 0  1 0.26 0  0 0.28 0  0.02 0.28 0  0.04 0.28 0  0.06 0.28 0  0.08 0.28 0  0.1 0.28 0  0.12 0.28 0  0.14 0.28 0  0.16 0.28 0  0.18 0.28 0  0.2 0.28 0  0.22 0.28 0  0.24 0.28 0  0.26 0.28 0  0.28 0.28 0  0.3 0.28 0  0.32 0.28 0  0.34 0.28 0  0.36 0.28 0  0.38 0.28 0  0.4 0.28 0  0.42 0.28 0  0.44 0.28 0  0.46 0.28 0  0.48 0.28 0  0.5 0.28 0  0.52 0.28 0  0.54 0.28 0  0.5600000000000001 0.28 0  0.58 0.28 0  0.6 0.28 0  0.62 0.28 0  0.64 0.28 0  0.66 0.28 0  0.68 0.28 0  0.7 0.28 0  0.72 0.28 0  0.74 0.28 0  0.76 0.28 0  0.78 0.28 0  0.8 0.28 0  0.82 0.28 0  0.84 0.28 0  0.86 0.28
[...]
<PointData  Scalars="f_12"> 
<DataArray  type="Float64"  Name="f_12"  format="ascii">2.0000000000000000e+00  2.0000000000000000e+00  2.0000000000000000e+00  2.0000000000000000e+00  2.0000000000000000e+00  2.0000000000000000e+00  2.0000000000000000e+00  2.0000000000000000e+00  2.0000000000000000e+00  2.0000000000000000e+00  2.0000000000000000e+00  2.0000000000000000e+00  2.0000000000000000e+00  2.0000000000000000e+00  2.0000000000000000e+00  2.0000000000000000e+00  2.0000000000000000e+00  2.0000000000000000e+00  2.0000000000000000e+00  2.0000000000000000e+00  2.0000000000000000e+00  2.0000000000000000e+00  2.0000000000000000e+00  2.0000000000000000e+00  2.0000000000000000e+00  2.0000000000000000e+00  2.0000000000000000e+00  2.0000000000000000e+00  2.0000000000000000e+00  2.0000000000000000e+00  2.0000000000000000e+00  2.0000000000000000e+00  2.0000000000000000e+00  2.0000000000000000e+00  2.0000000000000000e+00  2.0000000000000000e+00  2.0000000000000000e+00  2.0000000000000000e+00  2.0000000000000000e+00  2.0000000000000000e+00  2.0000000000000000e+00  2.0000000000000000e+00  2.0000000000000000e+00  2.0000000000000000e+00  2.0000000000000000e+00  2.0000000000000000e+00  2.0000000000000000e+00  2.0000000000000000e+00  2.0000000000000000e+00  2.0000000000000000e+00  2.0000000000000000e+00  2.0000000000000000e+00  1.9813720589847148e+00  1.9630216769216609e+00  1.9452177755907496e+00  1.9282022574450364e+00  1.9121822958477670e+00  1.8973229453370946e+00  1.8837427990158300e+00  1.8715127740498583e+00  1.8606578290473679e+00  1.8511611749896411e+00  1.8429703711228109e+00  1.8360046123594393e+00  1.8301625139788857e+00  1.8253297700650399e+00  1.8213861840513486e+00  1.8182117197455598e+00  1.8156913769815830e+00  1.8137188392177206e+00  1.8121989582291052e+00  1.8110492268352196e+00  1.8102004430766672e+00  1.8095967912135889e+00  1.8091955616614745e+00  1.8089667097785593e+00  1.8088924182931361e+00  1.8089667850952589e+00  1.8091957107364400e+00  1.8095970106152106e+00  1.8102007269064944e+00  1.8110495659264365e+00  1.8121993392414124e+00  1.8137192437616223e+00  1.8156917809252811e+00  1.8182120928644709e+00  1.8213864901688319e+00  1.8253299677996122e+00  1.8301625581570784e+00  1.8360044560775701e+00  1.8429699683523040e+00  1.8511604835299462e+00  1.8606568135499886e+00  1.8715114087767126e+00  1.8837410699578567e+00  1.8973208512900510e+00  1.9121798479612830e+00  1.9281994764128834e+00  1.9452146841355766e+00  1.9630182779364935e+00  1.9813682482313166e+00  2.0000000000000000e+00  2.0000000000000000e+00  1.9630216769216637e+00  1.9265965220243735e+00  1.8912557882288539e+00  1.8574796581350497e+00  1.8256793159633087e+00  1.7961823590004640e+00  1.7692241914479101e+00  1.7449456139490844e+00  1.7233962278640300e+00  1.7045427865703580e+00  1.6882812871593076e+00  1.6744514272169424e+00  1.6628520496594255e+00  1.6532563385512904e+00  1.6454257705537398e+00  1.6391221241011138e+00  1.6341171573654325e+00  1.6301998500904837e+00  1.6271813381751539e+00  1.6248978401688177e+00  1.6232119790420112e+00  1.6220129462582960e+00  1.6212159487977171e+00  1.6207613357962281e+00  1.6206137318090788e+00  1.6207614182714263e+00  1.6212161107050382e+00  1.6220131812407912e+00  1.6232122769408059e+00  1.6248981864203556e+00  1.6271817132358422e+00  1.6302002290551190e+00  1.6341175099488563e+00  1.6391224151290831e+00  1.6454259610565252e+00  1.6532563874736093e+00  1.6628519161006428e+00  1.6744510730094597e+00  1.6882806794989853e+00  1.7045419003497062e+00  1.7233950473420827e+00  1.7449441334261293e+00  1.7692224146873525e+00  1.7961802972200602e+00  1.8256769842391505e+00  1.8574770699253516e+00  1.8912529474287492e+00  1.9265934132754636e+00  1.9630182779364926e+00  2.0000000000000000e+00  2.0000000000000000e+00  1.9452177755907492e+00  1.8912557882288521e+00  1.8388997173068471e+00  1.7888606951046677e+00  1.7417477208656473e+00  1.6980460451853805e+00  1.6581044240538414e+00  1.6221315420095195e+00  1.5902010414913923e+00  1.5622638757559397e+00  1.5381662007399550e+00  1.5176707711418376e+00  1.5004798029475466e+00  1.4862574712758339e+00  1.4746505697407954e+00  1.4653062974680959e+00  1.4578865970348436e+00  1.4520788869829371e+00  1.4476033787347062e+00  1.4442174200004461e+00  1.4417174612591481e+00  1.4399393067757766e+00  1.4387573023936988e+00  1.4380830473799351e+00  1.4378641145676709e+00  1.4380831365793747e+00  1.4387574766796893e+00  1.4399395576804483e+00  1.4417177755418156e+00  1.4442177791795068e+00  1.4476037587389361e+00  1.4520792581132858e+00  1.4578869244188817e+00  1.4653065421446791e+00  1.4746506904310999e+00  1.4862574267843678e+00  1.5004795550063159e+00  1.5176702873838142e+00  1.5381654573900920e+00  1.5622628595847943e+00  1.5901997506060526e+00  1.6221299851622815e+00  1.6581026183147507e+00  1.6980440120151163e+00  1.7417454807999289e+00  1.7888582614287876e+00  1.8388970895016339e+00  1.8912529474287487e+00  1.9452146841355780e+00  2.0000000000000000e+00  2.0000000000000000e+00  1.9282022574450346e+00  1.8574796581350477e+00  1.7888606951046675e+00  1.7232769693970706e+00  1.6615263619223428e+00  1.6042447212409494e+00  1.5518891606121563e+00  1.5047333571647725e+00  1.4628741174739044e+00  1.4262475327201973e+00  1.3946523894424492e+00  1.3677781739184733e+00  1.3452350033876064e+00  1.3265830869359005e+00  1.3113597858052319e+00  1.2991029181903302e+00  1.2893695516830330e+00  1.2817500767959424e+00  1.2758778083834077e+00  1.2714346923883002e+00  1.2681538980456719e+00  1.2658201610649644e+00  1.2642687316165648e+00  1.2633836961716622e+00  1.2630963074919328e+00  1.2633837915149966e+00  1.2642689175042356e+00  1.2658204276726577e+00  1.2681542301457782e+00  1.2714350689607223e+00  1.2758782024029540e+00  1.2817504554039485e+00  1.2893698769346578e+00  1.2991031485113198e+00  1.3113598781927922e+00  1.3265829998056176e+00  1.3452346998192304e+00  1.3677776249135101e+00  1.3946515767068763e+00  1.4262464504556067e+00  1.4628727727206090e+00  1.5047317683943011e+00  1.5518873544965537e+00  1.6042427277964724e+00  1.6615242084964850e+00  1.7232746742257026e+00  1.7888582614287896e+00  1.8574770699253547e+00  1.9281994764128840e+00  2.0000000000000000e+00  2.0000000000000000e+00  1.9121822958477646e+00  1.8256793159633080e+00  1.7417477208656467e+00  1.6615263619223419e+00  1.5859907356488017e+00  1.5159183834984622e+00  1.4518684655308762e+00  1.3941759904894668e+00  1.3429598067698192e+00  1.2981423097352629e+00  1.2594780179947291e+00  1.2265877698464807e+00  1.1989952839675477e+00  1.1761631563539219e+00  1.1575259345825875e+00  1.1425186122022115e+00  1.1305996160586207e+00  1.1212680313910439e+00  1.1140753636047742e+00  1.1086325399997978e+00  1.1046131030072119e+00  1.1017536514669828e+00  1.0998525727712767e+00  1.0987680055509894e+00  1.0984158081927620e+00  1.0987681062715582e+00  1.0998527690707074e+00  1.1017539328413055e+00  1.1046134532281420e+00  1.1086329367594314e+00  1.1140757783644863e+00  1.1212684296513011e+00  1.1305999582469075e+00  1.1425188553125447e+00  1.1575260345927423e+00  1.1761630713045663e+00  1.1989949774299127e+00  1.2265872143599981e+00  1.2594771979563417e+00  1.2981412231993601e+00  1.3429584656939395e+00  1.3941744191396639e+00  1.4518666970236398e+00  1.5159164547644228e+00  1.5859886814066384e+00  1.6615242084964865e+00  1.7417454807999324e+00  1.8256769842391547e+00  1.9121798479612850e+00  2.0000000000000000e+00  2.0000000000000000e+00  1.8973229453370950e+00  1.7961823590004657e+00  1.6980460451853814e+00  1.6042447212409494e+00  1.5159183834984622e+00  1.4339758920237786e+00  1.3590710929617509e+00  1.2915960448058721e+00  1.2316903076225774e+00  1.1792639135535783e+00  1.1340306994419489e+00  1.0955482127338201e+00  1.0632603918211339e+00  1.0365396029147320e+00  1.0147252780984881e+00  9.9715721706438432e-01  9.8320246644393405e-01  9.7227547499704681e-01  9.6385187008529383e-01  9.5747667364149558e-01  9.5276806658900681e-01  9.4941793413852849e-01  9.4719040917119701e-01  9.4591951106020811e-01  9.4550678566217872e-01  9.4591961618621689e-01  9.4719061423439455e-01  9.4941822853977531e-01  9.5276843395585531e-01  9.5747709147368720e-01  9.6385230960838741e-01  9.7227590144325937e-01  9.8320283995949298e-01  9.9715749437853762e-01  1.0147254149814473e+00  1.0365395573095924e+00  1.0632601273773059e+00  1.0955477023250382e+00  1.1340299281535342e+00  1.1792628806032441e+00  1.2316890267584144e+00  1.2915945429082840e+00  1.3590694068443243e+00  1.4339740637404952e+00  1.5159164547644255e+00  1.6042427277964746e+00  1.6980440120151219e+00  1.7961802972200644e+00  1.8973208512900539e+00  2.0000000000000000e+00  2.0000000000000000e+00  1.8837427990158295e+00  1.7692241914479105e+00  1.6581044240538441e+00  1.5518891606121545e+00  1.4518684655308745e+00  1.3590710929617509e+00  1.2742374574183688e+00  1.1978119296242973e+00  1.1299532865373214e+00  1.0705606299718022e+00  1.0193110282959543e+00  9.7570460341471499e-01  9.3911277186678799e-01  9.0882577704782086e-01  8.8409639625128844e-01  8.6417762893169692e-01  8.4835313396173984e-01  8.3596006997091421e-01  8.2640472477513782e-01  8.1917185519736324e-01  8.1382898834474304e-01  8.1002707612645530e-01  8.0749887858238933e-01  8.0605631682152301e-01  8.0558782014397534e-01  8.0605642518074649e-01  8.0749909030758116e-01  8.1002738100517535e-01  8.1382937057164173e-01  8.1917229299930228e-01  8.2640519023079650e-01  8.3596052924034880e-01  8.4835354812366426e-01  8.6417795556573762e-01  8.8409659179993649e-01  9.0882579985698153e-01  9.3911258565297095e-01  9.7570418076777965e-01  1.0193103537307306e+00  1.0705597020198676e+00  1.1299521184432026e+00  1.1978105483820825e+00  1.2742359011374236e+00  1.3590694068443250e+00  1.4518666970236420e+00  1.5518873544965579e+00  1.6581026183147558e+00  1.7692224146873572e+00  1.8837410699578574e+00  2.0000000000000000e+00  2.0000000000000000e+00  1.8715127740498583e+00  1.7449456139490860e+00  1.6221315420095177e+00  1.5047333571647705e+00  1.3941759904894666e+00  1.2915960448058732e+00  1.1978119296242982e+00  1.1133153057491194e+00  1.0382825542621952e+00  9.7260331493147656e-01  9.1592196947222315e-01  8.6768735631393679e-01  8.2720598629355868e-01  7.9369449823331983e-01  7.6632791442910153e-01  7.4428127193045956e-01  7.2676326483099563e-01  7.1304151022807449e-01  7.0245985841758107e-01  6.9444875944492290e-01  6.8853006325448518e-01  6.8431778727769765e-01  6.8151636858607234e-01  6.7991776990028518e-01  6.7939857065862819e-01  6.7991788014756582e-01  6.8151658447019448e-01  6.8431809934679255e-01  6.8853045682735858e-01  6.9444921420555505e-01  7.0246034817859671e-01  7.1304200307009813e-01  7.2676372381043575e-01  7.4428165649424105e-01  7.6632818258160040e-01  7.9369460937605663e-01  8.2720590451860510e-01  8.6768705380173416e-01  9.1592142955266820e-01  9.7260253434137045e-01  1.0382815441922792e+00  1.1133140914239190e+00  1.1978105483820853e+00  1.2915945429082865e+00  1.3941744191396694e+00  1.5047317683943076e+00  1.6221299851622886e+00  1.7449441334261357e+00  1.8715114087767168e+00  2.0000000000000000e+00  2.0000000000000000e+00  1.8606578290473690e+00  1.7233962278640285e+00  1.5902010414913903e+00  1.4628741174739024e+00  1.3429598067698185e+00  1.2316903076225771e+00  1.1299532865373225e+00  1.0382825542621958e+00  9.5687041297884801e-01  8.8559848493023419e-01  8.2408256637255106e-01  7.7172641166860012e-01  7.2777933091557079e-01  6.9139298955359463e-01  6.6167368413806260e-01  6.3772746569459693e-01  6.1869662731820751e-01  6.0378713028456210e-01  5.9228741793508832e-01  5.8357970805607595e-01  5.7714525117472848e-01  5.7256521322977127e-01  5.6951882430792855e-01  5.6778027607420012e-01  5.6721559332668425e-01  5.6778038673855058e-01  5.6951904154103872e-01  5.7256552860607102e-01  5.7714565153834052e-01  5.8358017508356719e-01  5.9228792783496209e-01  6.0378765382781541e-01  6.1869713038389174e-01  6.3772791046824395e-01  6.6167403101919986e-01  6.9139319971786128e-01  7.2777936935145959e-01  7.7172625038983700e-01  8.2408218742009587e-01  8.8559788274751727e-01  9.5686959578805109e-01  1.0382815441922810e+00  1.1299521184432073e+00  1.2316890267584180e+00  1.3429584656939446e+00  1.4628727727206152e+00  1.5901997506060606e+00  1.7233950473420891e+00  1.8606568135499935e+00  2.0000000000000000e+00  2.0000000000000000e+00  1.8511611749896417e+00  1.7045427865703584e+00  1.5622638757559419e+00  1.4262475327201967e+00  1.2981423097352609e+00  1.1792639135535778e+00  1.0705606299718045e+00  9.7260331493147933e-01  8.8559848493023652e-01  8.0942111562030894e-01  7.4366240712170883e-01  6.8768709138499196e-01  6.4069483111675307e-01  6.0178079477219137e-01  5.6999143313466971e-01  5.4437265019409120e-01  5.2400878041779941e-01  5.0805191155313134e-01  4.9574202543467388e-01  4.8641911434073848e-01  4.7952885496151343e-01  4.7462360603003512e-01  4.7136047922913532e-01  4.6949806445430536e-01  4.6889311688415247e-01  4.6949817400040394e-01  4.7136069482023846e-01  4.7462392042943619e-01  4.7952925678961067e-01  4.8641958761176113e-01  4.9574254919550609e-01  5.0805245980291014e-01  5.2400932248060217e-01  5.4437315167945444e-01  5.6999185755154913e-01  6.0178110576656518e-01  6.4069499519319395e-01  6.8768708086607944e-01  7.4366220301797692e-01  8.0942071004881022e-01  8.8559788274751938e-01  9.7260253434137489e-01  1.0705597020198729e+00  1.1792628806032510e+00  1.2981412231993668e+00  1.4262464504556158e+00  1.5622628595848038e+00  1.7045419003497144e+00  1.8511604835299491e+00  2.0000000000000000e+00  2.0000000000000000e+00  1.8429703711228111e+00  1.6882812871593109e+00  1.5381662007399590e+00  1.3946523894424518e+00  1.2594780179947311e+00  1.1340306994419516e+00  1.0193110282959610e+00  9.1592196947222848e-01  8.2408256637255528e-01  7.4366240712171083e-01  6.7423186574121952e-01  6.1512241369662679e-01  5.6549126697202790e-01  5.2438519358993252e-01  4.9079929398043404e-01  4.6372779297168909e-01  4.4220516454418834e-01  4.2533709676721887e-01  4.1232178764710276e-01  4.0246278525042473e-01  3.9517503413780974e-01  3.8998598560205228e-01  3.8653361339635545e-01  3.8456300026831303e-01  3.8392287308619333e-01  3.8456310716576636e-01  3.8653382431711336e-01  3.8998629456729628e-01  3.9517543165753655e-01  4.0246325784435727e-01  4.1232231743393544e-01  4.2533766128318334e-01  4.4220573694921195e-01  4.6372834277204106e-01  4.9079978834008292e-01  5.2438559922276218e-01  5.6549155251311045e-01  6.1512255235747160e-01  6.7423183797945785e-01  7.4366220301797903e-01  8.2408218742009876e-01  9.1592142955267319e-01  1.0193103537307386e+00  1.1340299281535422e+00  1.2594771979563524e+00  1.3946515767068872e+00  1.5381654573901040e+00  1.6882806794989949e+00  1.8429699683523080e+00  2.0000000000000000e+00  2.0000000000000000e+00  1.8360046123594407e+00  1.6744514272169442e+00  1.5176707711418409e+00  1.3677781739184762e+00  1.2265877698464838e+00  1.0955482127338250e+00  9.7570460341472187e-01  8.6768735631394378e-01  7.7172641166860700e-01  6.8768709138499595e-01  6.1512241369662890e-01  5.5333592791943165e-01  5.0144909593009435e-01  4.5846782688319881e-01  4.2334379759598967e-01  3.9502746666684341e-01  3.7251102545623688e-01  3.5486076509629189e-01  3.4123936418725548e-01  3.3091935635714242e-01  3.2328950621521724e-01  3.1785602770621935e-01  3.1424056391289146e-01  3.1217666462040639e-01  3.1150619885484987e-01  3.1217676741360650e-01  3.1424076724433714e-01  3.1785632684383797e-01  3.2328989355263349e-01  3.3091982093122080e-01  3.4123989123344012e-01  3.5486133578394036e-01  3.7251161694642781e-01  3.9502805261320439e-01  4.2334434916398295e-01  4.5846831429781598e-01  5.0144949048327581e-01  5.5333620428843033e-01  6.1512255235747482e-01  6.8768708086608465e-01  7.7172625038984410e-01  8.6768705380174160e-01  9.7570418076779031e-01  1.0955477023250506e+00  1.2265872143600114e+00  1.3677776249135236e+00  1.5176702873838293e+00  1.6744510730094735e+00  1.8360044560775770e+00  2.0000000000000000e+00  2.0000000000000000e+00  1.8301625139788857e+00  1.6628520496594255e+00  1.5004798029475483e+00  1.3452350033876090e+00  1.1989952839675528e+00  1.0632603918211374e+00  9.3911277186679765e-01  8.2720598629356767e-01  7.2777933091557911e-01  6.4069483111675862e-01  5.6549126697203111e-01  5.0144909593009590e-01  4.4766010257980082e-01  4.0309620096460336e-01  3.6667287208693755e-01  3.3730403526557129e-01  3.1394653048161120e-01  2.9563366606972658e-01  2.8149834668410839e-01  2.7078707766393645e-01  2.6286662873914318e-01  2.5722535412392555e-01  2.5347115207277043e-01  2.5132785916990158e-01  2.5063156603966774e-01  2.5132795654151324e-01  2.5347134514050690e-01  2.5722563932704856e-01  2.6286700025209192e-01  2.7078752692329244e-01  2.8149886192750395e-01  2.9563423200984529e-01  3.1394712824098847e-01  3.3730464268232974e-01  3.6667346446673804e-01  4.0309675230178837e-01  4.4766058720631863e-01  5.0144949048327847e-01  5.6549155251311722e-01  6.4069499519320183e-01  7.2777936935146814e-01  8.2720590451861531e-01  9.3911258565298394e-01  1.0632601273773203e+00  1.1989949774299273e+00  1.3452346998192470e+00  1.5004795550063330e+00  1.6628519161006587e+00  1.8301625581570886e+00  2.0000000000000000e+00  2.0000000000000000e+00  1.8253297700650382e+00  1.6532563385512908e+00  1.4862574712758356e+00  1.3265830869359025e+00  1.1761631563539248e+00  1.0365396029147360e+00  9.0882577704782552e-01  7.9369449823332583e-01  6.9139298955359940e-01  6.0178079477219493e-01  5.2438519358993529e-01  4.5846782688319992e-01  4.0309620096460302e-01  3.5721434842176625e-01  3.1970800529917248e-01  2.8946101300358706e-01  2.6540106701308491e-01  2.4653424527339410e-01  2.3196883849164765e-01  2.2092980773630863e-01  2.1276569610522567e-01  2.0695004266219141e-01  2.0307933392158659e-01  2.0086933639454038e-01  2.0015133747906988e-01  2.0086942721671103e-01  2.0307951440692681e-01  2.0695031029869709e-01  2.1276604667309276e-01  2.2093023485604549e-01  2.3196933316363549e-01  2.4653479551349761e-01  2.6540165769300217e-01  2.8946162599421843e-01  3.1970861998916245e-01  3.5721494264257414e-01  4.0309675230179037e-01  4.5846831429781981e-01  5.2438559922276917e-01  6.0178110576657451e-01  6.9139319971787205e-01  7.9369460937606895e-01  9.0882579985699696e-01  1.0365395573096086e+00  1.1761630713045852e+00  1.3265829998056384e+00  1.4862574267843869e+00  1.6532563874736257e+00  1.8253299677996215e+00  2.0000000000000000e+00  2.0000000000000000e+00  1.8213861840513486e+00  1.6454257705537425e+00  1.4746505697407957e+00  1.3113597858052324e+00  1.1575259345825883e+00  1.0147252780984894e+00  8.8409639625129122e-01  7.6632791442910453e-01  6.6167368413806582e-01  5.6999143313467193e-01  4.9079929398043631e-01  4.2334379759598967e-01  3.6667287208693755e-01  3.1970800529917220e-01  2.8131083149832770e-01  2.5034077709285335e-01  2.2570184218312062e-01  2.0637793250844552e-01  1.9145726891930598e-01  1.8014722259252833e-01  1.7178143749402888e-01  1.6582132917306430e-01  1.6185403710661977e-01  1.5958871300933655e-01  1.5885270522084163e-01  1.5958879637833623e-01  1.6185420312441162e-01  1.6582157622346361e-01  1.7178176274041188e-01  1.8014762155681605e-01  1.9145773503736158e-01  2.0637845674902247e-01  2.2570241282244932e-01  2.5034137973054366e-01  2.8131144938128988e-01  3.1970861998916372e-01  3.6667346446674126e-01  4.2334434916398750e-01  4.9079978834009025e-01  5.6999185755155812e-01  6.6167403101921063e-01  7.6632818258161362e-01  8.8409659179995248e-01  1.0147254149814653e+00  1.1575260345927612e+00  1.3113598781928122e+00  1.4746506904311198e+00  1.6454259610565427e+00  1.8213864901688415e+00  2.0000000000000000e+00  2.0000000000000000e+00  1.8182117197455603e+00  1.6391221241011129e+00  1.4653062974680926e+00  1.2991029181903266e+00  1.1425186122022126e+00  9.9715721706438598e-01  8.6417762893169914e-01  7.4428127193046190e-01  6.3772746569459937e-01  5.4437265019409253e-01  4.6372779297169009e-01  3.9502746666684407e-01  3.3730403526557123e