<?xml version="1.0"?>
<VTKFile type="UnstructuredGrid"  version="0.1"  >
<UnstructuredGrid>
<Piece  NumberOfPoints="2601" NumberOfCells="5000">
<Points>
<DataArray  type="Float64"  NumberOfComponents="3"  format="ascii">0 0 0  0.02 0 0  0.04 0 0  0.06 0 0  0.08 0 0  0.1 0 0  0.12 0 0  0.14 0 0  0.16 0 0  0.18 0 0  0.2 0 0  0.22 0 0  0.24 0 0  0.26 0 0  0.28 0 0  0.3 0 0  0.32 0 0  0.34 0 0  0.36 0 0  0.38 0 0  0.4 0 0  0.42 0 0  0.44 0 0  0.46 0 0  0.48 0 0  0.5 0 0  0.52 0 0  0.54 0 0  0.5600000000000001 0 0  0.58 0 0  0.6 0 0  0.62 0 0  0.64 0 0  0.66 0 0  0.68 0 0  0.7 0 0  0.72 0 0  0.74 0 0  0.76 0 0  0.78 0 0  0.8 0 0  0.82 0 0  0.84 0 0  0.86 0 0  0.88 0 0  0.9 0 0  0.92 0 0  0.9399999999999999 0 0  0.96 0 0  0.98 0 0  1 0 0  0 0.02 0  0.02 0.02 0  0.04 0.02 0  0.06 0.02 0  0.08 0.02 0  0.1 0.02 0  0.12 0.02 0  0.14 0.02 0  0.16 0.02 0  0.18 0.02 0  0.2 0.02 0  0.22 0.02 0  0.24 0.02 0  0.26 0.02 0  0.28 0.02 0  0.3 0.02 0  0.32 0.02 0  0.34 0.02 0  0.36 0.02 0  0.38 0.02 0  0.4 0.02 0  0.42 0.02 0  0.44 0.02 0  0.46 0.02 0  0.48 0.02 0  0.5 0.02 0  0.52 0.02 0  0.54 0.02 0  0.5600000000000001 0.02 0  0.58 0.02 0  0.6 0.02 0  0.62 0.02 0  0.64 0.02 0  0.66 0.02 0  0.68 0.02 0  0.7 0.02 0  0.72 0.02 0  0.74 0.02 0  0.76 0.02 0  0.78 0.02 0  0.8 0.02 0  0.82 0.02 0  0.84 0.02 0  0.86 0.02 0  0.88 0.02 0  0.9 0.02 0  0.92 0.02 0  0.9399999999999999 0.02 0  0.96 0.02 0  0.98 0.02 0  1 0.02 0  0 0.04 0  0.02 0.04 0  0.04 0.04 0  0.06 0.04 0  0.08 0.04 0  0.1 0.04 0  0.12 0.04 0  0.14 0.04 0  0.16 0.04 0  0.18 0.04 0  0.2 0.04 0  0.22 0.04 0  0.24 0.04 0  0.26 0.04 0  0.28 0.04 0  0.3 0.04 0  0.32 0.04 0  0.34 0.04 0  0.36 0.04 0  0.38 0.04 0  0.4 0.04 0  0.42 0.04 0  0.44 0.04 0  0.46 0.04 0  0.48 0.04 0  0.5 0.04 0  0.52 0.04 0  0.54 0.04 0  0.5600000000000001 0.04 0  0.58 0.04 0  0.6 0.04 0  0.62 0.04 0  0.64 0.04 0  0.66 0.04 0  0.68 0.04 0  0.7 0.04 0  0.72 0.04 0  0.74 0.04 0  0.76 0.04 0  0.78 0.04 0  0.8 0.04 0  0.82 0.04 0  0.84 0.04 0  0.86 0.04 0  0.88 0.04 0  0.9 0.04 0  0.92 0.04 0  0.9399999999999999 0.04 0  0.96 0.04 0  0.98 0.04 0  1 0.04 0  0 0.06 0  0.02 0.06 0  0.04 0.06 0  0.06 0.06 0  0.08 0.06 0  0.1 0.06 0  0.12 0.06 0  0.14 0.06 0  0.16 0.06 0  0.18 0.06 0  0.2 0.06 0  0.22 0.06 0  0.24 0.06 0  0.26 0.06 0  0.28 0.06 0  0.3 0.06 0  0.32 0.06 0  0.34 0.06 0  0.36 0.06 0  0.38 0.06 0  0.4 0.06 0  0.42 0.06 0  0.44 0.06 0  0.46 0.06 0  0.48 0.06 0  0.5 0.06 0  0.52 0.06 0  0.54 0.06 0  0.5600000000000001 0.06 0  0.58 0.06 0  0.6 0.06 0  0.62 0.06 0  0.64 0.06 0  0.66 0.06 0  0.68 0.06 0  0.7 0.06 0  0.72 0.06 0  0.74 0.06 0  0.76 0.06 0  0.78 0.06 0  0.8 0.06 0  0.82 0.06 0  0.84 0.06 0  0.86 0.06 0  0.88 0.06 0  0.9 0.06 0  0.92 0.06 0  0.9399999999999999 0.06 0  0.96 0.06 0  0.98 0.06 0  1 0.06 0  0 0.08 0  0.02 0.08 0  0.04 0.08 0  0.06 0.08 0  0.08 0.08 0  0.1 0.08 0  0.12 0.08 0  0.14 0.08 0  0.16 0.08 0  0.18 0.08 0  0.2 0.08 0  0.22 0.08 0  0.24 0.08 0  0.26 0.08 0  0.28 0.08 0  0.3 0.08 0  0.32 0.08 0  0.34 0.08 0  0.36 0.08 0  0.38 0.08 0  0.4 0.08 0  0.42 0.08 0  0.44 0.08 0  0.46 0.08 0  0.48 0.08 0  0.5 0.08 0  0.52 0.08 0  0.54 0.08 0  0.5600000000000001 0.08 0  0.58 0.08 0  0.6 0.08 0  0.62 0.08 0  0.64 0.08 0  0.66 0.08 0  0.68 0.08 0  0.7 0.08 0  0.72 0.08 0  0.74 0.08 0  0.76 0.08 0  0.78 0.08 0  0.8 0.08 0  0.82 0.08 0  0.84 0.08 0  0.86 0.08 0  0.88 0.08 0  0.9 0.08 0  0.92 0.08 0  0.9399999999999999 0.08 0  0.96 0.08 0  0.98 0.08 0  1 0.08 0  0 0.1 0  0.02 0.1 0  0.04 0.1 0  0.06 0.1 0  0.08 0.1 0  0.1 0.1 0  0.12 0.1 0  0.14 0.1 0  0.16 0.1 0  0.18 0.1 0  0.2 0.1 0  0.22 0.1 0  0.24 0.1 0  0.26 0.1 0  0.28 0.1 0  0.3 0.1 0  0.32 0.1 0  0.34 0.1 0  0.36 0.1 0  0.38 0.1 0  0.4 0.1 0  0.42 0.1 0  0.44 0.1 0  0.46 0.1 0  0.48 0.1 0  0.5 0.1 0  0.52 0.1 0  0.54 0.1 0  0.5600000000000001 0.1 0  0.58 0.1 0  0.6 0.1 0  0.62 0.1 0  0.64 0.1 0  0.66 0.1 0  0.68 0.1 0  0.7 0.1 0  0.72 0.1 0  0.74 0.1 0  0.76 0.1 0  0.78 0.1 0  0.8 0.1 0  0.82 0.1 0  0.84 0.1 0  0.86 0.1 0  0.88 0.1 0  0.9 0.1 0  0.92 0.1 0  0.9399999999999999 0.1 0  0.96 0.1 0  0.98 0.1 0  1 0.1 0  0 0.12 0  0.02 0.12 0  0.04 0.12 0  0.06 0.12 0  0.08 0.12 0  0.1 0.12 0  0.12 0.12 0  0.14 0.12 0  0.16 0.12 0  0.18 0.12 0  0.2 0.12 0  0.22 0.12 0  0.24 0.12 0  0.26 0.12 0  0.28 0.12 0  0.3 0.12 0  0.32 0.12 0  0.34 0.12 0  0.36 0.12 0  0.38 0.12 0  0.4 0.12 0  0.42 0.12 0  0.44 0.12 0  0.46 0.12 0  0.48 0.12 0  0.5 0.12 0  0.52 0.12 0  0.54 0.12 0  0.5600000000000001 0.12 0  0.58 0.12 0  0.6 0.12 0  0.62 0.12 0  0.64 0.12 0  0.66 0.12 0  0.68 0.12 0  0.7 0.12 0  0.72 0.12 0  0.74 0.12 0  0.76 0.12 0  0.78 0.12 0  0.8 0.12 0  0.82 0.12 0  0.84 0.12 0  0.86 0.12 0  0.88 0.12 0  0.9 0.12 0  0.92 0.12 0  0.9399999999999999 0.12 0  0.96 0.12 0  0.98 0.12 0  1 0.12 0  0 0.14 0  0.02 0.14 0  0.04 0.14 0  0.06 0.14 0  0.08 0.14 0  0.1 0.14 0  0.12 0.14 0  0.14 0.14 0  0.16 0.14 0  0.18 0.14 0  0.2 0.14 0  0.22 0.14 0  0.24 0.14 0  0.26 0.14 0  0.28 0.14 0  0.3 0.14 0  0.32 0.14 0  0.34 0.14 0  0.36 0.14 0  0.38 0.14 0  0.4 0.14 0  0.42 0.14 0  0.44 0.14 0  0.46 0.14 0  0.48 0.14 0  0.5 0.14 0  0.52 0.14 0  0.54 0.14 0  0.5600000000000001 0.14 0  0.58 0.14 0  0.6 0.14 0  0.62 0.14 0  0.64 0.14 0  0.66 0.14 0  0.68 0.14 0  0.7 0.14 0  0.72 0.14 0  0.74 0.14 0  0.76 0.14 0  0.78 0.14 0  0.8 0.14 0  0.82 0.14 0  0.84 0.14 0  0.86 0.14 0  0.88 0.14 0  0.9 0.14 0  0.92 0.14 0  0.9399999999999999 0.14 0  0.96 0.14 0  0.98 0.14 0  1 0.14 0  0 0.16 0  0.02 0.16 0  0.04 0.16 0  0.06 0.16 0  0.08 0.16 0  0.1 0.16 0  0.12 0.16 0  0.14 0.16 0  0.16 0.16 0  0.18 0.16 0  0.2 0.16 0  0.22 0.16 0  0.24 0.16 0  0.26 0.16 0  0.28 0.16 0  0.3 0.16 0  0.32 0.16 0  0.34 0.16 0  0.36 0.16 0  0.38 0.16 0  0.4 0.16 0  0.42 0.16 0  0.44 0.16 0  0.46 0.16 0  0.48 0.16 0  0.5 0.16 0  0.52 0.16 0  0.54 0.16 0  0.5600000000000001 0.16 0  0.58 0.16 0  0.6 0.16 0  0.62 0.16 0  0.64 0.16 0  0.66 0.16 0  0.68 0.16 0  0.7 0.16 0  0.72 0.16 0  0.74 0.16 0  0.76 0.16 0  0.78 0.16 0  0.8 0.16 0  0.82 0.16 0  0.84 0.16 0  0.86 0.16 0  0.88 0.16 0  0.9 0.16 0  0.92 0.16 0  0.9399999999999999 0.16 0  0.96 0.16 0  0.98 0.16 0  1 0.16 0  0 0.18 0  0.02 0.18 0  0.04 0.18 0  0.06 0.18 0  0.08 0.18 0  0.1 0.18 0  0.12 0.18 0  0.14 0.18 0  0.16 0.18 0  0.18 0.18 0  0.2 0.18 0  0.22 0.18 0  0.24 0.18 0  0.26 0.18 0  0.28 0.18 0  0.3 0.18 0  0.32 0.18 0  0.34 0.18 0  0.36 0.18 0  0.38 0.18 0  0.4 0.18 0  0.42 0.18 0  0.44 0.18 0  0.46 0.18 0  0.48 0.18 0  0.5 0.18 0  0.52 0.18 0  0.54 0.18 0  0.5600000000000001 0.18 0  0.58 0.18 0  0.6 0.18 0  0.62 0.18 0  0.64 0.18 0  0.66 0.18 0  0.68 0.18 0  0.7 0.18 0  0.72 0.18 0  0.74 0.18 0  0.76 0.18 0  0.78 0.18 0  0.8 0.18 0  0.82 0.18 0  0.84 0.18 0  0.86 0.18 0  0.88 0.18 0  0.9 0.18 0  0.92 0.18 0  0.9399999999999999 0.18 0  0.96 0.18 0  0.98 0.18 0  1 0.18 0  0 0.2 0  0.02 0.2 0  0.04 0.2 0  0.06 0.2 0  0.08 0.2 0  0.1 0.2 0  0.12 0.2 0  0.14 0.2 0  0.16 0.2 0  0.18 0.2 0  0.2 0.2 0  0.22 0.2 0  0.24 0.2 0  0.26 0.2 0  0.28 0.2 0  0.3 0.2 0  0.32 0.2 0  0.34 0.2 0  0.36 0.2 0  0.38 0.2 0  0.4 0.2 0  0.42 0.2 0  0.44 0.2 0  0.46 0.2 0  0.48 0.2 0  0.5 0.2 0  0.52 0.2 0  0.54 0.2 0  0.5600000000000001 0.2 0  0.58 0.2 0  0.6 0.2 0  0.62 0.2 0  0.64 0.2 0  0.66 0.2 0  0.68 0.2 0  0.7 0.2 0  0.72 0.2 0  0.74 0.2 0  0.76 0.2 0  0.78 0.2 0  0.8 0.2 0  0.82 0.2 0  0.84 0.2 0  0.86 0.2 0  0.88 0.2 0  0.9 0.2 0  0.92 0.2 0  0.9399999999999999 0.2 0  0.96 0.2 0  0.98 0.2 0  1 0.2 0  0 0.22 0  0.02 0.22 0  0.04 0.22 0  0.06 0.22 0  0.08 0.22 0  0.1 0.22 0  0.12 0.22 0  0.14 0.22 0  0.16 0.22 0  0.18 0.22 0  0.2 0.22 0  0.22 0.22 0  0.24 0.22 0  0.26 0.22 0  0.28 0.22 0  0.3 0.22 0  0.32 0.22 0  0.34 0.22 0  0.36 0.22 0  0.38 0.22 0  0.4 0.22 0  0.42 0.22 0  0.44 0.22 0  0.46 0.22 0  0.48 0.22 0  0.5 0.22 0  0.52 0.22 0  0.54 0.22 0  0.5600000000000001 0.22 0  0.58 0.22 0  0.6 0.22 0  0.62 0.22 0  0.64 0.22 0  0.66 0.22 0  0.68 0.22 0  0.7 0.22 0  0.72 0.22 0  0.74 0.22 0  0.76 0.22 0  0.78 0.22 0  0.8 0.22 0  0.82 0.22 0  0.84 0.22 0  0.86 0.22 0  0.88 0.22 0  0.9 0.22 0  0.92 0.22 0  0.9399999999999999 0.22 0  0.96 0.22 0  0.98 0.22 0  1 0.22 0  0 0.24 0  0.02 0.24 0  0.04 0.24 0  0.06 0.24 0  0.08 0.24 0  0.1 0.24 0  0.12 0.24 0  0.14 0.24 0  0.16 0.24 0  0.18 0.24 0  0.2 0.24 0  0.22 0.24 0  0.24 0.24 0  0.26 0.24 0  0.28 0.24 0  0.3 0.24 0  0.32 0.24 0  0.34 0.24 0  0.36 0.24 0  0.38 0.24 0  0.4 0.24 0  0.42 0.24 0  0.44 0.24 0  0.46 0.24 0  0.48 0.24 0  0.5 0.24 0  0.52 0.24 0  0.54 0.24 0  0.5600000000000001 0.24 0  0.58 0.24 0  0.6 0.24 0  0.62 0.24 0  0.64 0.24 0  0.66 0.24 0  0.68 0.24 0  0.7 0.24 0  0.72 0.24 0  0.74 0.24 0  0.76 0.24 0  0.78 0.24 0  0.8 0.24 0  0.82 0.24 0  0.84 0.24 0  0.86 0.24 0  0.88 0.24 0  0.9 0.24 0  0.92 0.24 0  0.9399999999999999 0.24 0  0.96 0.24 0  0.98 0.24 0  1 0.24 0  0 0.26 0  0.02 0.26 0  0.04 0.26 0  0.06 0.26 0  0.08 0.26 0  0.1 0.26 0  0.12 0.26 0  0.14 0.26 0  0.16 0.26 0  0.18 0.26 0  0.2 0.26 0  0.22 0.26 0  0.24 0.26 0  0.26 0.26 0  0.28 0.26 0  0.3 0.26 0  0.32 0.26 0  0.34 0.26 0  0.36 0.26 0  0.38 0.26 0  0.4 0.26 0  0.42 0.26 0  0.44 0.26 0  0.46 0.26 0  0.48 0.26 0  0.5 0.26 0  0.52 0.26 0  0.54 0.26 0  0.5600000000000001 0.26 0  0.58 0.26 0  0.6 0.26 0  0.62 0.26 0  0.64 0.26 0  0.66 0.26 0  0.68 0.26 0  0.7 0.26 0  0.72 0.26 0  0.74 0.26 0  0.76 0.26 0  0.78 0.26 0  0.8 0.26 0  0.82 0.26 0  0.84 0.26 0  0.86 0.26 0  0.88 0.26 0  0.9 0.26 0  0.92 0.26 0  0.9399999999999999 0.26 0  0.96 0.26 0  0.98 0.26 0  1 0.26 0  0 0.28 0  0.02 0.28 0  0.04 0.28 0  0.06 0.28 0  0.08 0.28 0  0.1 0.28 0  0.12 0.28 0  0.14 0.28 0  0.16 0.28 0  0.18 0.28 0  0.2 0.28 0  0.22 0.28 0  0.24 0.28 0  0.26 0.28 0  0.28 0.28 0  0.3 0.28 0  0.32 0.28 0  0.34 0.28 0  0.36 0.28 0  0.38 0.28 0  0.4 0.28 0  0.42 0.28 0  0.44 0.28 0  0.46 0.28 0  0.48 0.28 0  0.5 0.28 0  0.52 0.28 0  0.54 0.28 0  0.5600000000000001 0.28 0  0.58 0.28 0  0.6 0.28 0  0.62 0.28 0  0.64 0.28 0  0.66 0.28 0  0.68 0.28 0  0.7 0.28 0  0.72 0.28 0  0.74 0.28 0  0.76 0.28 0  0.78 0.28 0  0.8 0.28 0  0.82 0.28 0  0.84 0.28 0  0.86 0.28
[...]
<PointData  Scalars="f_12"> 
<DataArray  type="Float64"  Name="f_12"  format="ascii">2.0000000000000000e+00  2.0000000000000000e+00  2.0000000000000000e+00  2.0000000000000000e+00  2.0000000000000000e+00  2.0000000000000000e+00  2.0000000000000000e+00  2.0000000000000000e+00  2.0000000000000000e+00  2.0000000000000000e+00  2.0000000000000000e+00  2.0000000000000000e+00  2.0000000000000000e+00  2.0000000000000000e+00  2.0000000000000000e+00  2.0000000000000000e+00  2.0000000000000000e+00  2.0000000000000000e+00  2.0000000000000000e+00  2.0000000000000000e+00  2.0000000000000000e+00  2.0000000000000000e+00  2.0000000000000000e+00  2.0000000000000000e+00  2.0000000000000000e+00  2.0000000000000000e+00  2.0000000000000000e+00  2.0000000000000000e+00  2.0000000000000000e+00  2.0000000000000000e+00  2.0000000000000000e+00  2.0000000000000000e+00  2.0000000000000000e+00  2.0000000000000000e+00  2.0000000000000000e+00  2.0000000000000000e+00  2.0000000000000000e+00  2.0000000000000000e+00  2.0000000000000000e+00  2.0000000000000000e+00  2.0000000000000000e+00  2.0000000000000000e+00  2.0000000000000000e+00  2.0000000000000000e+00  2.0000000000000000e+00  2.0000000000000000e+00  2.0000000000000000e+00  2.0000000000000000e+00  2.0000000000000000e+00  2.0000000000000000e+00  2.0000000000000000e+00  2.0000000000000000e+00  1.9824017901410662e+00  1.9650509480512373e+00  1.9481878134114365e+00  1.9320298752006637e+00  1.9167652757238383e+00  1.9025463552359512e+00  1.8894856521878687e+00  1.8776544552066121e+00  1.8670837893179595e+00  1.8577675251799255e+00  1.8496671563187694e+00  1.8427177078357599e+00  1.8368342222793663e+00  1.8319183072962488e+00  1.8278643121440099e+00  1.8245648098388285e+00  1.8219151819402009e+00  1.8198172190422706e+00  1.8181817507629709e+00  1.8169303973933544e+00  1.8159965884447382e+00  1.8153260215321032e+00  1.8148767411445510e+00  1.8146190049612483e+00  1.8145350799222122e+00  1.8146190753982752e+00  1.8148768799947128e+00  1.8153262245113191e+00  1.8159968485686033e+00  1.8169307043964513e+00  1.8181820904680868e+00  1.8198175727909460e+00  1.8219155262077698e+00  1.8245651161562342e+00  1.8278645474326773e+00  1.8319184346897790e+00  1.8368342024575064e+00  1.8427175008357535e+00  1.8496667237225546e+00  1.8577668325108290e+00  1.8670828084255358e+00  1.8776531663787859e+00  1.8894840457053159e+00  1.9025444320598213e+00  1.9167630469315375e+00  1.9320273594669808e+00  1.9481850304811665e+00  1.9650478996788410e+00  1.9823983831381935e+00  2.0000000000000000e+00  2.0000000000000000e+00  1.9650509480512377e+00  1.9305951141748470e+00  1.8971075108727276e+00  1.8650200520525386e+00  1.8347063152271017e+00  1.8064687928006018e+00  1.7805309617091465e+00  1.7570344089311505e+00  1.7360407869919940e+00  1.7175379832786868e+00  1.7014496006198421e+00  1.6876466845221783e+00  1.6759605970323550e+00  1.6661960143056398e+00  1.6581431885261646e+00  1.6515888324373915e+00  1.6463252233085650e+00  1.6421573535099006e+00  1.6389081547960795e+00  1.6364219789929666e+00  1.6345666231879157e+00  1.6332342435637477e+00  1.6323415142089355e+00  1.6318293636779735e+00  1.6316625715912170e+00  1.6318294383694525e+00  1.6323416601878202e+00  1.6332344538558978e+00  1.6345668869605838e+00  1.6364222812256055e+00  1.6389084760210781e+00  1.6421576697477966e+00  1.6463255063176214e+00  1.6515890503714121e+00  1.6581433070472618e+00  1.6661959981338164e+00  1.6759604118387641e+00  1.6876462989988039e+00  1.7014489884981125e+00  1.7175371250351825e+00  1.7360396709790471e+00  1.7570330317033216e+00  1.7805293273713179e+00  1.8064669112513645e+00  1.8347041991608617e+00  1.8650177124369014e+00  1.8971049503433843e+00  1.9305923189713312e+00  1.9650478996788401e+00  2.0000000000000000e+00  2.0000000000000000e+00  1.9481878134114363e+00  1.8971075108727267e+00  1.8474621224123275e+00  1.7998917648413930e+00  1.7549501373826255e+00  1.7130856178594878e+00  1.6746295099676090e+00  1.6397917787737084e+00  1.6086639403993310e+00  1.5812281943942339e+00  1.5573714628633248e+00  1.5369027600527134e+00  1.5195722633025874e+00  1.5050905701554986e+00  1.4931468683722704e+00  1.4834250677032623e+00  1.4756172954931868e+00  1.4694344993578936e+00  1.4646141963682189e+00  1.4609256387780556e+00  1.4581728226323019e+00  1.4561958487734283e+00  1.4548711639794376e+00  1.4541111751840845e+00  1.4538636550143345e+00  1.4541112544009196e+00  1.4548713179934820e+00  1.4561960686283857e+00  1.4581730946526572e+00  1.4609259444168274e+00  1.4646145122106766e+00  1.4694347974161068e+00  1.4756175439099661e+00  1.4834252319401333e+00  1.4931469128866823e+00  1.5050904604845201e+00  1.5195719683761051e+00  1.5369022544752873e+00  1.5573707288480947e+00  1.5812272230202804e+00  1.6086627319041473e+00  1.6397903416821946e+00  1.6746278589820907e+00  1.7130837705643542e+00  1.7549481099254500e+00  1.7998895668598549e+00  1.8474597518100653e+00  1.8971049503433843e+00  1.9481850304811681e+00  2.0000000000000000e+00  2.0000000000000000e+00  1.9320298752006635e+00  1.8650200520525357e+00  1.7998917648413930e+00  1.7374844199475452e+00  1.6785241594359654e+00  1.6235990759300818e+00  1.5731437978436802e+00  1.5274338871917061e+00  1.4865896128073111e+00  1.4505879059917282e+00  1.4192807494796675e+00  1.3924179352931740e+00  1.3696720573356789e+00  1.3506637532025483e+00  1.3349855261832964e+00  1.3222229000553991e+00  1.3119721218682621e+00  1.3038540748896477e+00  1.2975244521140732e+00  1.2926805431359487e+00  1.2890651922995311e+00  1.2864685953524184e+00  1.2847286259737163e+00  1.2837303381765759e+00  1.2834051927959713e+00  1.2837304220144290e+00  1.2847287885545950e+00  1.2864688263996933e+00  1.2890654762378342e+00  1.2926808590494872e+00  1.2975247739162652e+00  1.3038543718465150e+00  1.3119723595943356e+00  1.3222230420457037e+00  1.3349855358614044e+00  1.3506635963620712e+00  1.3696717047462514e+00  1.3924173651519860e+00  1.4192799493371051e+00  1.4505868737826149e+00  1.4865883566870530e+00  1.5274324240058959e+00  1.5731421502331917e+00  1.6235972682641746e+00  1.6785222129492814e+00  1.7374823476342414e+00  1.7998895668598571e+00  1.8650177124369043e+00  1.9320273594669799e+00  2.0000000000000000e+00  2.0000000000000000e+00  1.9167652757238383e+00  1.8347063152271008e+00  1.7549501373826253e+00  1.6785241594359650e+00  1.6063172509274271e+00  1.5390494063919489e+00  1.4772528740436268e+00  1.4212652831714327e+00  1.3712342376246387e+00  1.3271319187900275e+00  1.2887775612764356e+00  1.2558652784270201e+00  1.2279946287268526e+00  1.2047014950179158e+00  1.1854872346181113e+00  1.1698445733641043e+00  1.1572792818920847e+00  1.1473272189477717e+00  1.1395668014173155e+00  1.1336273309158831e+00  1.1291938580476670e+00  1.1260093996047571e+00  1.1238753539191875e+00  1.1226509044127289e+00  1.1222520819846462e+00  1.1226509927412582e+00  1.1238755251150288e+00  1.1260096426729134e+00  1.1291941563743297e+00  1.1336276622814505e+00  1.1395671382496317e+00  1.1473275289627329e+00  1.1572795292415967e+00  1.1698447203505213e+00  1.1854872439437043e+00  1.2047013324280649e+00  1.2279942657935086e+00  1.2558646951262249e+00  1.2887767479633578e+00  1.3271308771861416e+00  1.3712329805146621e+00  1.4212638326587652e+00  1.4772512584142241e+00  1.5390476558580473e+00  1.6063153927303597e+00  1.6785222129492834e+00  1.7549481099254531e+00  1.8347041991608648e+00  1.9167630469315395e+00  2.0000000000000000e+00  2.0000000000000000e+00  1.9025463552359518e+00  1.8064687928006036e+00  1.7130856178594878e+00  1.6235990759300811e+00  1.5390494063919482e+00  1.4602793670690706e+00  1.3879121465222601e+00  1.3223433005947725e+00  1.2637460934785152e+00  1.2120885438167843e+00  1.1671596810637328e+00  1.1286020652888229e+00  1.0959475219471557e+00  1.0686532533010320e+00  1.0461359384372912e+00  1.0278020348171417e+00  1.0130731545275951e+00  1.0014060270350693e+00  9.9230711556358586e-01  9.8534238735935886e-01  9.8014303244601719e-01  9.7640808293897174e-01  9.7390492056863465e-01  9.7246859600193170e-01  9.7200074422318361e-01  9.7246868843450218e-01  9.7390509987719143e-01  9.7640833794018578e-01  9.8014334625052701e-01  9.8534273739557499e-01  9.9230747384882423e-01  1.0014063608431698e+00  1.0130734275744058e+00  1.0278022090234837e+00  1.0461359762372782e+00  1.0686531203527361e+00  1.0959471899898188e+00  1.1286015147982105e+00  1.1671589033080769e+00  1.2120875419295560e+00  1.2637448822513564e+00  1.3223419048508718e+00  1.3879105981386270e+00  1.4602777009436243e+00  1.5390476558580504e+00  1.6235972682641771e+00  1.7130837705643596e+00  1.8064669112513694e+00  1.9025444320598242e+00  2.0000000000000000e+00  2.0000000000000000e+00  1.8894856521878705e+00  1.7805309617091472e+00  1.6746295099676105e+00  1.5731437978436780e+00  1.4772528740436242e+00  1.3879121465222601e+00  1.3058283439986791e+00  1.2314503506192933e+00  1.1649752158452205e+00  1.1063674198459192e+00  1.0553885741714801e+00  1.0116342248863917e+00  9.7457430890326113e-01  9.4359405060129298e-01  9.1803259402025528e-01  8.9721734505964190e-01  8.8049274476151340e-01  8.6724291745139326e-01  8.5690826635705730e-01  8.4899658020613922e-01  8.4308954826477633e-01  8.3884576034099667e-01  8.3600130928058591e-01  8.3436904151435620e-01  8.3383734381593599e-01  8.3436913740115171e-01  8.3600149563074266e-01  8.3884602623158955e-01  8.4308987718143447e-01  8.4899695004596631e-01  8.5690864966918601e-01  8.6724328206352919e-01  8.8049305491480201e-01  8.9721756311497203e-01  9.1803268271081861e-01  9.4359397569911441e-01  9.7457404205813780e-01  1.0116337463055065e+00  1.0553878747594558e+00  1.1063665024369025e+00  1.1649740952411731e+00  1.2314490522987103e+00  1.3058269015593233e+00  1.3879105981386277e+00  1.4772512584142268e+00  1.5731421502331959e+00  1.6746278589820958e+00  1.7805293273713225e+00  1.8894840457053166e+00  2.0000000000000000e+00  2.0000000000000000e+00  1.8776544552066121e+00  1.7570344089311514e+00  1.6397917787737062e+00  1.5274338871917041e+00  1.4212652831714321e+00  1.3223433005947725e+00  1.2314503506192940e+00  1.1490837499179951e+00  1.0754623179104548e+00  1.0105476267239013e+00  9.5407679235915666e-01  9.0560312810990107e-01  8.6454085100980482e-01  8.3021029137079461e-01  8.0188061523148035e-01  7.7880781851591874e-01  7.6026657581065027e-01  7.4557532490248146e-01  7.3411466330066233e-01  7.2533967602170035e-01  7.1878718382442042e-01  7.1407909989729335e-01  7.1092312917242062e-01  7.0911196557488843e-01  7.0852196898694264e-01  7.0911206401943294e-01  7.1092332095429678e-01  7.1407937471532024e-01  7.1878752606774421e-01  7.2534006473182011e-01  7.3411507234936002e-01  7.4557572353060486e-01  7.6026692964979281e-01  7.7880809116098482e-01  8.0188077035046035e-01  8.3021029523822598e-01  8.6454067524775091e-01  9.0560275233436205e-01  9.5407620638161350e-01  1.0105468319646742e+00  1.0754613277525964e+00  1.1490825888647944e+00  1.2314490522987136e+00  1.3223419048508749e+00  1.4212638326587699e+00  1.5274324240059016e+00  1.6397903416822013e+00  1.7570330317033291e+00  1.8776531663787874e+00  2.0000000000000000e+00  2.0000000000000000e+00  1.8670837893179606e+00  1.7360407869919932e+00  1.6086639403993284e+00  1.4865896128073091e+00  1.3712342376246396e+00  1.2637460934785143e+00  1.1649752158452225e+00  1.0754623179104557e+00  9.9544589407329664e-01  9.2488521718139538e-01  8.6349586122464428e-01  8.1079376482326337e-01  7.6614370778021879e-01  7.2880835198477545e-01  6.9799460282679615e-01  6.7289485771338031e-01  6.5272160076595520e-01  6.3673466788212407e-01  6.2426126023204975e-01  6.1470937378899704e-01  6.0757571457396498e-01  6.0244938594250941e-01  5.9901268528577511e-01  5.9704026275808009e-01  5.9639770694550942e-01  5.9704036265490790e-01  5.9901288042511758e-01  6.0244966691651969e-01  6.0757606707711642e-01  6.1470977852951225e-01  6.2426169302987067e-01  6.3673510009250500e-01  6.5272200014881709e-01  6.7289518982110397e-01  6.9799483291019382e-01  7.2880844732670624e-01  7.6614364027230231e-01  8.1079351352091977e-01  8.6349541456786039e-01  9.2488457456922746e-01  9.9544506653824816e-01  1.0754613277525982e+00  1.1649740952411778e+00  1.2637448822513595e+00  1.3712329805146690e+00  1.4865883566870608e+00  1.6086627319041553e+00  1.7360396709790540e+00  1.8670828084255395e+00  2.0000000000000000e+00  2.0000000000000000e+00  1.8577675251799255e+00  1.7175379832786863e+00  1.5812281943942361e+00  1.4505879059917275e+00  1.3271319187900272e+00  1.2120885438167850e+00  1.1063674198459208e+00  1.0105476267239033e+00  9.2488521718139693e-01  8.4933772890881509e-01  7.8360208574833268e-01  7.2716163734674477e-01  6.7933793185923819e-01  6.3934311195785987e-01  6.0632946812519695e-01  5.7943354688226067e-01  5.5781316354363497e-01  5.4067659252866762e-01  5.2730401359802015e-01  5.1706192273201323e-01  5.0941164684582185e-01  5.0391333407722338e-01  5.0022684696436459e-01  4.9811089613635262e-01  4.9742155219122208e-01  4.9811099622562793e-01  5.0022704303287635e-01  5.0391361779387578e-01  5.0941200548634402e-01  5.1706233903848553e-01  5.2730446579180845e-01  5.4067705460775106e-01  5.5781360598064522e-01  5.7943393779941288e-01  6.0632977495901275e-01  6.3934330354714908e-01  6.7933798080571561e-01  7.2716152242399934e-01  7.8360179408798558e-01  8.4933725768663182e-01  9.2488457456922990e-01  1.0105468319646780e+00  1.1063665024369074e+00  1.2120875419295629e+00  1.3271308771861496e+00  1.4505868737826253e+00  1.5812272230202915e+00  1.7175371250351898e+00  1.8577668325108319e+00  2.0000000000000000e+00  2.0000000000000000e+00  1.8496671563187692e+00  1.7014496006198450e+00  1.5573714628633273e+00  1.4192807494796693e+00  1.2887775612764385e+00  1.1671596810637364e+00  1.0553885741714861e+00  9.5407679235916087e-01  8.6349586122464816e-01  7.8360208574833456e-01  7.1407649224507086e-01  6.5437442804309964e-01  6.0378017491025138e-01  5.6146224169447179e-01  5.2652567830174857e-01  4.9805866222164891e-01  4.7517161168783223e-01  4.5702805313467787e-01  4.4286732033379939e-01  4.3201982828882707e-01  4.2391612017311642e-01  4.1809113211464866e-01  4.1418518038730245e-01  4.1194308182692224e-01  4.1121260791575331e-01  4.1194318076026631e-01  4.1418537473736872e-01  4.1809141472776329e-01  4.2391648006269961e-01  4.3202025044804654e-01  4.4286778566777546e-01  4.5702853863337556e-01  4.7517209095020208e-01  4.9805910640873263e-01  5.2652605754313575e-01  5.6146252690422405e-01  6.0378033989475566e-01  6.5437445171693187e-01  7.1407636072563141e-01  7.8360179408798780e-01  8.6349541456786383e-01  9.5407620638161872e-01  1.0553878747594634e+00  1.1671589033080854e+00  1.2887767479633678e+00  1.4192799493371162e+00  1.5573707288481073e+00  1.7014489884981234e+00  1.8496667237225595e+00  2.0000000000000000e+00  2.0000000000000000e+00  1.8427177078357606e+00  1.6876466845221800e+00  1.5369027600527161e+00  1.3924179352931747e+00  1.2558652784270232e+00  1.1286020652888267e+00  1.0116342248863974e+00  9.0560312810990806e-01  8.1079376482327048e-01  7.2716163734674955e-01  6.5437442804310164e-01  5.9186376969057053e-01  5.3888227263895117e-01  4.9456128338831534e-01  4.5796555335602224e-01  4.2814194385098242e-01  4.0416033914164456e-01  3.8514595555444164e-01  3.7030312200203858e-01  3.5893130322185884e-01  3.5043461345221300e-01  3.4432632692831583e-01  3.4022995512245297e-01  3.3787836366488605e-01  3.3711218277052474e-01  3.3787846007586508e-01  3.4023014503286581e-01  3.4432660438868251e-01  3.5043496926214590e-01  3.5893172470504958e-01  3.7030359286860010e-01  3.8514645596057467e-01  4.0416084604965030e-01  4.2814243176668271e-01  4.5796599547682398e-01  4.9456165313779732e-01  5.3888254550061232e-01  5.9186392519457309e-01  6.5437445171693520e-01  7.2716152242400489e-01  8.1079351352092666e-01  9.0560275233436882e-01  1.0116337463055169e+00  1.1286015147982238e+00  1.2558646951262395e+00  1.3924173651519998e+00  1.5369022544753042e+00  1.6876462989988186e+00  1.8427175008357628e+00  2.0000000000000000e+00  2.0000000000000000e+00  1.8368342222793670e+00  1.6759605970323548e+00  1.5195722633025881e+00  1.3696720573356800e+00  1.2279946287268568e+00  1.0959475219471602e+00  9.7457430890327024e-01  8.6454085100981415e-01  7.6614370778022745e-01  6.7933793185924396e-01  6.0378017491025460e-01  5.3888227263895305e-01  4.8387029430108275e-01  4.3784437160816914e-01  3.9983534863113762e-01  3.6885527315047523e-01  3.4393983152877805e-01  3.2418188070464321e-01  3.0875615001184714e-01  2.9693590683339205e-01  2.8810287454643091e-01  2.8175196026629568e-01  2.7749241682876707e-01  2.7504696391408640e-01  2.7425016689633219e-01  2.7504705648662975e-01  2.7749259964762868e-01  2.8175222855058080e-01  2.8810322083824375e-01  2.9693632074662363e-01  3.0875661803942167e-01  3.2418238618220335e-01  3.4394035484887592e-01  3.6885579230149473e-01  3.9983584010004669e-01  4.3784481163902100e-01  4.8387066044792243e-01  5.3888254550061476e-01  6.0378033989476221e-01  6.7933798080572383e-01  7.6614364027231130e-01  8.6454067524776157e-01  9.7457404205815201e-01  1.0959471899898336e+00  1.2279942657935237e+00  1.3696717047462694e+00  1.5195719683761242e+00  1.6759604118387805e+00  1.8368342024575175e+00  2.0000000000000000e+00  2.0000000000000000e+00  1.8319183072962473e+00  1.6661960143056394e+00  1.5050905701554991e+00  1.3506637532025489e+00  1.2047014950179187e+00  1.0686532533010364e+00  9.4359405060129808e-01  8.3021029137080138e-01  7.2880835198478144e-01  6.3934311195786375e-01  5.6146224169447467e-01  4.9456128338831645e-01  4.3784437160816880e-01  3.9038577664728391e-01  3.5118819864284284e-01  3.1923474509244210e-01  2.9353263533995472e-01  2.7314775633226263e-01  2.5723013921481802e-01  2.4503116876055162e-01  2.3591384712161972e-01  2.2935771123662213e-01  2.2496007314625960e-01  2.2243515098131575e-01  2.2161242621045618e-01  2.2243523850995864e-01  2.2496024641832929e-01  2.2935796655505561e-01  2.3591417865371320e-01  2.4503156827266401e-01  2.5723059584093960e-01  2.7314825646210822e-01  2.9353316271072022e-01  3.1923528115372035e-01  3.5118872323671707e-01  3.9038626900761475e-01  4.3784481163902306e-01  4.9456165313780159e-01  5.6146252690423126e-01  6.3934330354715863e-01  7.2880844732671801e-01  8.3021029523823930e-01  9.4359397569913039e-01  1.0686531203527543e+00  1.2047013324280855e+00  1.3506635963620934e+00  1.5050904604845412e+00  1.6661959981338339e+00  1.8319184346897894e+00  2.0000000000000000e+00  2.0000000000000000e+00  1.8278643121440101e+00  1.6581431885261662e+00  1.4931468683722695e+00  1.3349855261832961e+00  1.1854872346181129e+00  1.0461359384372924e+00  9.1803259402025861e-01  8.0188061523148402e-01  6.9799460282679926e-01  6.0632946812519928e-01  5.2652567830175068e-01  4.5796555335602263e-01  3.9983534863113751e-01  3.5118819864284234e-01  3.1100375743545333e-01  2.7824139601778619e-01  2.5188495207275413e-01  2.3097813157309491e-01  2.1465062853329039e-01  2.0213578886129385e-01  1.9278116618096597e-01  1.8605360267367871e-01  1.8154054050600954e-01  1.7894916646033110e-01  1.7810475552260147e-01  1.7894924789736816e-01  1.8154070207413253e-01  1.8605384163965533e-01  1.9278147816630489e-01  2.0213616757442313e-01  2.1465106551575333e-01  2.3097861603324957e-01  2.5188547088067964e-01  2.7824193392471214e-01  3.1100429756005499e-01  3.5118872323671824e-01  3.9983584010004952e-01  4.5796599547682881e-01  5.2652605754314419e-01  6.0632977495902241e-01  6.9799483291020548e-01  8.0188077035047467e-01  9.1803268271083560e-01  1.0461359762372966e+00  1.1854872439437256e+00  1.3349855358614262e+00  1.4931469128867028e+00  1.6581433070472797e+00  1.8278645474326884e+00  2.0000000000000000e+00  2.0000000000000000e+00  1.8245648098388294e+00  1.6515888324373911e+00  1.4834250677032610e+00  1.3222229000553969e+00  1.1698445733641054e+00  1.0278020348171431e+00  8.9721734505964434e-01  7.7880781851592118e-01  6.7289485771338275e-01  5.7943354688226190e-01  4.9805866222165002e-01  4.2814194385098286e-01  3.6885527315047500e