<?xml version="1.0"?>
<VTKFile type="UnstructuredGrid"  version="0.1"  >
<UnstructuredGrid>
<Piece  NumberOfPoints="2601" NumberOfCells="5000">
<Points>
<DataArray  type="Float64"  NumberOfComponents="3"  format="ascii">0 0 0  0.02 0 0  0.04 0 0  0.06 0 0  0.08 0 0  0.1 0 0  0.12 0 0  0.14 0 0  0.16 0 0  0.18 0 0  0.2 0 0  0.22 0 0  0.24 0 0  0.26 0 0  0.28 0 0  0.3 0 0  0.32 0 0  0.34 0 0  0.36 0 0  0.38 0 0  0.4 0 0  0.42 0 0  0.44 0 0  0.46 0 0  0.48 0 0  0.5 0 0  0.52 0 0  0.54 0 0  0.5600000000000001 0 0  0.58 0 0  0.6 0 0  0.62 0 0  0.64 0 0  0.66 0 0  0.68 0 0  0.7 0 0  0.72 0 0  0.74 0 0  0.76 0 0  0.78 0 0  0.8 0 0  0.82 0 0  0.84 0 0  0.86 0 0  0.88 0 0  0.9 0 0  0.92 0 0  0.9399999999999999 0 0  0.96 0 0  0.98 0 0  1 0 0  0 0.02 0  0.02 0.02 0  0.04 0.02 0  0.06 0.02 0  0.08 0.02 0  0.1 0.02 0  0.12 0.02 0  0.14 0.02 0  0.16 0.02 0  0.18 0.02 0  0.2 0.02 0  0.22 0.02 0  0.24 0.02 0  0.26 0.02 0  0.28 0.02 0  0.3 0.02 0  0.32 0.02 0  0.34 0.02 0  0.36 0.02 0  0.38 0.02 0  0.4 0.02 0  0.42 0.02 0  0.44 0.02 0  0.46 0.02 0  0.48 0.02 0  0.5 0.02 0  0.52 0.02 0  0.54 0.02 0  0.5600000000000001 0.02 0  0.58 0.02 0  0.6 0.02 0  0.62 0.02 0  0.64 0.02 0  0.66 0.02 0  0.68 0.02 0  0.7 0.02 0  0.72 0.02 0  0.74 0.02 0  0.76 0.02 0  0.78 0.02 0  0.8 0.02 0  0.82 0.02 0  0.84 0.02 0  0.86 0.02 0  0.88 0.02 0  0.9 0.02 0  0.92 0.02 0  0.9399999999999999 0.02 0  0.96 0.02 0  0.98 0.02 0  1 0.02 0  0 0.04 0  0.02 0.04 0  0.04 0.04 0  0.06 0.04 0  0.08 0.04 0  0.1 0.04 0  0.12 0.04 0  0.14 0.04 0  0.16 0.04 0  0.18 0.04 0  0.2 0.04 0  0.22 0.04 0  0.24 0.04 0  0.26 0.04 0  0.28 0.04 0  0.3 0.04 0  0.32 0.04 0  0.34 0.04 0  0.36 0.04 0  0.38 0.04 0  0.4 0.04 0  0.42 0.04 0  0.44 0.04 0  0.46 0.04 0  0.48 0.04 0  0.5 0.04 0  0.52 0.04 0  0.54 0.04 0  0.5600000000000001 0.04 0  0.58 0.04 0  0.6 0.04 0  0.62 0.04 0  0.64 0.04 0  0.66 0.04 0  0.68 0.04 0  0.7 0.04 0  0.72 0.04 0  0.74 0.04 0  0.76 0.04 0  0.78 0.04 0  0.8 0.04 0  0.82 0.04 0  0.84 0.04 0  0.86 0.04 0  0.88 0.04 0  0.9 0.04 0  0.92 0.04 0  0.9399999999999999 0.04 0  0.96 0.04 0  0.98 0.04 0  1 0.04 0  0 0.06 0  0.02 0.06 0  0.04 0.06 0  0.06 0.06 0  0.08 0.06 0  0.1 0.06 0  0.12 0.06 0  0.14 0.06 0  0.16 0.06 0  0.18 0.06 0  0.2 0.06 0  0.22 0.06 0  0.24 0.06 0  0.26 0.06 0  0.28 0.06 0  0.3 0.06 0  0.32 0.06 0  0.34 0.06 0  0.36 0.06 0  0.38 0.06 0  0.4 0.06 0  0.42 0.06 0  0.44 0.06 0  0.46 0.06 0  0.48 0.06 0  0.5 0.06 0  0.52 0.06 0  0.54 0.06 0  0.5600000000000001 0.06 0  0.58 0.06 0  0.6 0.06 0  0.62 0.06 0  0.64 0.06 0  0.66 0.06 0  0.68 0.06 0  0.7 0.06 0  0.72 0.06 0  0.74 0.06 0  0.76 0.06 0  0.78 0.06 0  0.8 0.06 0  0.82 0.06 0  0.84 0.06 0  0.86 0.06 0  0.88 0.06 0  0.9 0.06 0  0.92 0.06 0  0.9399999999999999 0.06 0  0.96 0.06 0  0.98 0.06 0  1 0.06 0  0 0.08 0  0.02 0.08 0  0.04 0.08 0  0.06 0.08 0  0.08 0.08 0  0.1 0.08 0  0.12 0.08 0  0.14 0.08 0  0.16 0.08 0  0.18 0.08 0  0.2 0.08 0  0.22 0.08 0  0.24 0.08 0  0.26 0.08 0  0.28 0.08 0  0.3 0.08 0  0.32 0.08 0  0.34 0.08 0  0.36 0.08 0  0.38 0.08 0  0.4 0.08 0  0.42 0.08 0  0.44 0.08 0  0.46 0.08 0  0.48 0.08 0  0.5 0.08 0  0.52 0.08 0  0.54 0.08 0  0.5600000000000001 0.08 0  0.58 0.08 0  0.6 0.08 0  0.62 0.08 0  0.64 0.08 0  0.66 0.08 0  0.68 0.08 0  0.7 0.08 0  0.72 0.08 0  0.74 0.08 0  0.76 0.08 0  0.78 0.08 0  0.8 0.08 0  0.82 0.08 0  0.84 0.08 0  0.86 0.08 0  0.88 0.08 0  0.9 0.08 0  0.92 0.08 0  0.9399999999999999 0.08 0  0.96 0.08 0  0.98 0.08 0  1 0.08 0  0 0.1 0  0.02 0.1 0  0.04 0.1 0  0.06 0.1 0  0.08 0.1 0  0.1 0.1 0  0.12 0.1 0  0.14 0.1 0  0.16 0.1 0  0.18 0.1 0  0.2 0.1 0  0.22 0.1 0  0.24 0.1 0  0.26 0.1 0  0.28 0.1 0  0.3 0.1 0  0.32 0.1 0  0.34 0.1 0  0.36 0.1 0  0.38 0.1 0  0.4 0.1 0  0.42 0.1 0  0.44 0.1 0  0.46 0.1 0  0.48 0.1 0  0.5 0.1 0  0.52 0.1 0  0.54 0.1 0  0.5600000000000001 0.1 0  0.58 0.1 0  0.6 0.1 0  0.62 0.1 0  0.64 0.1 0  0.66 0.1 0  0.68 0.1 0  0.7 0.1 0  0.72 0.1 0  0.74 0.1 0  0.76 0.1 0  0.78 0.1 0  0.8 0.1 0  0.82 0.1 0  0.84 0.1 0  0.86 0.1 0  0.88 0.1 0  0.9 0.1 0  0.92 0.1 0  0.9399999999999999 0.1 0  0.96 0.1 0  0.98 0.1 0  1 0.1 0  0 0.12 0  0.02 0.12 0  0.04 0.12 0  0.06 0.12 0  0.08 0.12 0  0.1 0.12 0  0.12 0.12 0  0.14 0.12 0  0.16 0.12 0  0.18 0.12 0  0.2 0.12 0  0.22 0.12 0  0.24 0.12 0  0.26 0.12 0  0.28 0.12 0  0.3 0.12 0  0.32 0.12 0  0.34 0.12 0  0.36 0.12 0  0.38 0.12 0  0.4 0.12 0  0.42 0.12 0  0.44 0.12 0  0.46 0.12 0  0.48 0.12 0  0.5 0.12 0  0.52 0.12 0  0.54 0.12 0  0.5600000000000001 0.12 0  0.58 0.12 0  0.6 0.12 0  0.62 0.12 0  0.64 0.12 0  0.66 0.12 0  0.68 0.12 0  0.7 0.12 0  0.72 0.12 0  0.74 0.12 0  0.76 0.12 0  0.78 0.12 0  0.8 0.12 0  0.82 0.12 0  0.84 0.12 0  0.86 0.12 0  0.88 0.12 0  0.9 0.12 0  0.92 0.12 0  0.9399999999999999 0.12 0  0.96 0.12 0  0.98 0.12 0  1 0.12 0  0 0.14 0  0.02 0.14 0  0.04 0.14 0  0.06 0.14 0  0.08 0.14 0  0.1 0.14 0  0.12 0.14 0  0.14 0.14 0  0.16 0.14 0  0.18 0.14 0  0.2 0.14 0  0.22 0.14 0  0.24 0.14 0  0.26 0.14 0  0.28 0.14 0  0.3 0.14 0  0.32 0.14 0  0.34 0.14 0  0.36 0.14 0  0.38 0.14 0  0.4 0.14 0  0.42 0.14 0  0.44 0.14 0  0.46 0.14 0  0.48 0.14 0  0.5 0.14 0  0.52 0.14 0  0.54 0.14 0  0.5600000000000001 0.14 0  0.58 0.14 0  0.6 0.14 0  0.62 0.14 0  0.64 0.14 0  0.66 0.14 0  0.68 0.14 0  0.7 0.14 0  0.72 0.14 0  0.74 0.14 0  0.76 0.14 0  0.78 0.14 0  0.8 0.14 0  0.82 0.14 0  0.84 0.14 0  0.86 0.14 0  0.88 0.14 0  0.9 0.14 0  0.92 0.14 0  0.9399999999999999 0.14 0  0.96 0.14 0  0.98 0.14 0  1 0.14 0  0 0.16 0  0.02 0.16 0  0.04 0.16 0  0.06 0.16 0  0.08 0.16 0  0.1 0.16 0  0.12 0.16 0  0.14 0.16 0  0.16 0.16 0  0.18 0.16 0  0.2 0.16 0  0.22 0.16 0  0.24 0.16 0  0.26 0.16 0  0.28 0.16 0  0.3 0.16 0  0.32 0.16 0  0.34 0.16 0  0.36 0.16 0  0.38 0.16 0  0.4 0.16 0  0.42 0.16 0  0.44 0.16 0  0.46 0.16 0  0.48 0.16 0  0.5 0.16 0  0.52 0.16 0  0.54 0.16 0  0.5600000000000001 0.16 0  0.58 0.16 0  0.6 0.16 0  0.62 0.16 0  0.64 0.16 0  0.66 0.16 0  0.68 0.16 0  0.7 0.16 0  0.72 0.16 0  0.74 0.16 0  0.76 0.16 0  0.78 0.16 0  0.8 0.16 0  0.82 0.16 0  0.84 0.16 0  0.86 0.16 0  0.88 0.16 0  0.9 0.16 0  0.92 0.16 0  0.9399999999999999 0.16 0  0.96 0.16 0  0.98 0.16 0  1 0.16 0  0 0.18 0  0.02 0.18 0  0.04 0.18 0  0.06 0.18 0  0.08 0.18 0  0.1 0.18 0  0.12 0.18 0  0.14 0.18 0  0.16 0.18 0  0.18 0.18 0  0.2 0.18 0  0.22 0.18 0  0.24 0.18 0  0.26 0.18 0  0.28 0.18 0  0.3 0.18 0  0.32 0.18 0  0.34 0.18 0  0.36 0.18 0  0.38 0.18 0  0.4 0.18 0  0.42 0.18 0  0.44 0.18 0  0.46 0.18 0  0.48 0.18 0  0.5 0.18 0  0.52 0.18 0  0.54 0.18 0  0.5600000000000001 0.18 0  0.58 0.18 0  0.6 0.18 0  0.62 0.18 0  0.64 0.18 0  0.66 0.18 0  0.68 0.18 0  0.7 0.18 0  0.72 0.18 0  0.74 0.18 0  0.76 0.18 0  0.78 0.18 0  0.8 0.18 0  0.82 0.18 0  0.84 0.18 0  0.86 0.18 0  0.88 0.18 0  0.9 0.18 0  0.92 0.18 0  0.9399999999999999 0.18 0  0.96 0.18 0  0.98 0.18 0  1 0.18 0  0 0.2 0  0.02 0.2 0  0.04 0.2 0  0.06 0.2 0  0.08 0.2 0  0.1 0.2 0  0.12 0.2 0  0.14 0.2 0  0.16 0.2 0  0.18 0.2 0  0.2 0.2 0  0.22 0.2 0  0.24 0.2 0  0.26 0.2 0  0.28 0.2 0  0.3 0.2 0  0.32 0.2 0  0.34 0.2 0  0.36 0.2 0  0.38 0.2 0  0.4 0.2 0  0.42 0.2 0  0.44 0.2 0  0.46 0.2 0  0.48 0.2 0  0.5 0.2 0  0.52 0.2 0  0.54 0.2 0  0.5600000000000001 0.2 0  0.58 0.2 0  0.6 0.2 0  0.62 0.2 0  0.64 0.2 0  0.66 0.2 0  0.68 0.2 0  0.7 0.2 0  0.72 0.2 0  0.74 0.2 0  0.76 0.2 0  0.78 0.2 0  0.8 0.2 0  0.82 0.2 0  0.84 0.2 0  0.86 0.2 0  0.88 0.2 0  0.9 0.2 0  0.92 0.2 0  0.9399999999999999 0.2 0  0.96 0.2 0  0.98 0.2 0  1 0.2 0  0 0.22 0  0.02 0.22 0  0.04 0.22 0  0.06 0.22 0  0.08 0.22 0  0.1 0.22 0  0.12 0.22 0  0.14 0.22 0  0.16 0.22 0  0.18 0.22 0  0.2 0.22 0  0.22 0.22 0  0.24 0.22 0  0.26 0.22 0  0.28 0.22 0  0.3 0.22 0  0.32 0.22 0  0.34 0.22 0  0.36 0.22 0  0.38 0.22 0  0.4 0.22 0  0.42 0.22 0  0.44 0.22 0  0.46 0.22 0  0.48 0.22 0  0.5 0.22 0  0.52 0.22 0  0.54 0.22 0  0.5600000000000001 0.22 0  0.58 0.22 0  0.6 0.22 0  0.62 0.22 0  0.64 0.22 0  0.66 0.22 0  0.68 0.22 0  0.7 0.22 0  0.72 0.22 0  0.74 0.22 0  0.76 0.22 0  0.78 0.22 0  0.8 0.22 0  0.82 0.22 0  0.84 0.22 0  0.86 0.22 0  0.88 0.22 0  0.9 0.22 0  0.92 0.22 0  0.9399999999999999 0.22 0  0.96 0.22 0  0.98 0.22 0  1 0.22 0  0 0.24 0  0.02 0.24 0  0.04 0.24 0  0.06 0.24 0  0.08 0.24 0  0.1 0.24 0  0.12 0.24 0  0.14 0.24 0  0.16 0.24 0  0.18 0.24 0  0.2 0.24 0  0.22 0.24 0  0.24 0.24 0  0.26 0.24 0  0.28 0.24 0  0.3 0.24 0  0.32 0.24 0  0.34 0.24 0  0.36 0.24 0  0.38 0.24 0  0.4 0.24 0  0.42 0.24 0  0.44 0.24 0  0.46 0.24 0  0.48 0.24 0  0.5 0.24 0  0.52 0.24 0  0.54 0.24 0  0.5600000000000001 0.24 0  0.58 0.24 0  0.6 0.24 0  0.62 0.24 0  0.64 0.24 0  0.66 0.24 0  0.68 0.24 0  0.7 0.24 0  0.72 0.24 0  0.74 0.24 0  0.76 0.24 0  0.78 0.24 0  0.8 0.24 0  0.82 0.24 0  0.84 0.24 0  0.86 0.24 0  0.88 0.24 0  0.9 0.24 0  0.92 0.24 0  0.9399999999999999 0.24 0  0.96 0.24 0  0.98 0.24 0  1 0.24 0  0 0.26 0  0.02 0.26 0  0.04 0.26 0  0.06 0.26 0  0.08 0.26 0  0.1 0.26 0  0.12 0.26 0  0.14 0.26 0  0.16 0.26 0  0.18 0.26 0  0.2 0.26 0  0.22 0.26 0  0.24 0.26 0  0.26 0.26 0  0.28 0.26 0  0.3 0.26 0  0.32 0.26 0  0.34 0.26 0  0.36 0.26 0  0.38 0.26 0  0.4 0.26 0  0.42 0.26 0  0.44 0.26 0  0.46 0.26 0  0.48 0.26 0  0.5 0.26 0  0.52 0.26 0  0.54 0.26 0  0.5600000000000001 0.26 0  0.58 0.26 0  0.6 0.26 0  0.62 0.26 0  0.64 0.26 0  0.66 0.26 0  0.68 0.26 0  0.7 0.26 0  0.72 0.26 0  0.74 0.26 0  0.76 0.26 0  0.78 0.26 0  0.8 0.26 0  0.82 0.26 0  0.84 0.26 0  0.86 0.26 0  0.88 0.26 0  0.9 0.26 0  0.92 0.26 0  0.9399999999999999 0.26 0  0.96 0.26 0  0.98 0.26 0  1 0.26 0  0 0.28 0  0.02 0.28 0  0.04 0.28 0  0.06 0.28 0  0.08 0.28 0  0.1 0.28 0  0.12 0.28 0  0.14 0.28 0  0.16 0.28 0  0.18 0.28 0  0.2 0.28 0  0.22 0.28 0  0.24 0.28 0  0.26 0.28 0  0.28 0.28 0  0.3 0.28 0  0.32 0.28 0  0.34 0.28 0  0.36 0.28 0  0.38 0.28 0  0.4 0.28 0  0.42 0.28 0  0.44 0.28 0  0.46 0.28 0  0.48 0.28 0  0.5 0.28 0  0.52 0.28 0  0.54 0.28 0  0.5600000000000001 0.28 0  0.58 0.28 0  0.6 0.28 0  0.62 0.28 0  0.64 0.28 0  0.66 0.28 0  0.68 0.28 0  0.7 0.28 0  0.72 0.28 0  0.74 0.28 0  0.76 0.28 0  0.78 0.28 0  0.8 0.28 0  0.82 0.28 0  0.84 0.28 0  0.86 0.28
[...]
<PointData  Scalars="f_12"> 
<DataArray  type="Float64"  Name="f_12"  format="ascii">2.0000000000000000e+00  2.0000000000000000e+00  2.0000000000000000e+00  2.0000000000000000e+00  2.0000000000000000e+00  2.0000000000000000e+00  2.0000000000000000e+00  2.0000000000000000e+00  2.0000000000000000e+00  2.0000000000000000e+00  2.0000000000000000e+00  2.0000000000000000e+00  2.0000000000000000e+00  2.0000000000000000e+00  2.0000000000000000e+00  2.0000000000000000e+00  2.0000000000000000e+00  2.0000000000000000e+00  2.0000000000000000e+00  2.0000000000000000e+00  2.0000000000000000e+00  2.0000000000000000e+00  2.0000000000000000e+00  2.0000000000000000e+00  2.0000000000000000e+00  2.0000000000000000e+00  2.0000000000000000e+00  2.0000000000000000e+00  2.0000000000000000e+00  2.0000000000000000e+00  2.0000000000000000e+00  2.0000000000000000e+00  2.0000000000000000e+00  2.0000000000000000e+00  2.0000000000000000e+00  2.0000000000000000e+00  2.0000000000000000e+00  2.0000000000000000e+00  2.0000000000000000e+00  2.0000000000000000e+00  2.0000000000000000e+00  2.0000000000000000e+00  2.0000000000000000e+00  2.0000000000000000e+00  2.0000000000000000e+00  2.0000000000000000e+00  2.0000000000000000e+00  2.0000000000000000e+00  2.0000000000000000e+00  2.0000000000000000e+00  2.0000000000000000e+00  2.0000000000000000e+00  1.9375216954231378e+00  1.8783602500880088e+00  1.8252989224424157e+00  1.7801140064307810e+00  1.7434834191486996e+00  1.7151254179046731e+00  1.6940915889044894e+00  1.6790945168856310e+00  1.6687829201223612e+00  1.6619251662532861e+00  1.6575014976644744e+00  1.6547266859853931e+00  1.6530302452960914e+00  1.6520172542475355e+00  1.6514253487181412e+00  1.6510863364341801e+00  1.6508957216573135e+00  1.6507903636607870e+00  1.6507330492099510e+00  1.6507023348016343e+00  1.6506861174454128e+00  1.6506777010329405e+00  1.6506734624926467e+00  1.6506715106319276e+00  1.6506709500680441e+00  1.6506715193605697e+00  1.6506734830220635e+00  1.6506777403244848e+00  1.6506861880845465e+00  1.6507024578158267e+00  1.6507332581067446e+00  1.6507907096077570e+00  1.6508962791799111e+00  1.6510872079562537e+00  1.6514266645782074e+00  1.6520191625661416e+00  1.6530328838227863e+00  1.6547301272694321e+00  1.6575056621179176e+00  1.6619297081114750e+00  1.6687871109515606e+00  1.6790971771368255e+00  1.6940911373390697e+00  1.7151200976863743e+00  1.7434716926247205e+00  1.7800949862142086e+00  1.8252725695458256e+00  1.8783269636508146e+00  1.9374805371265902e+00  2.0000000000000000e+00  2.0000000000000000e+00  1.8783602500880099e+00  1.7631859849151499e+00  1.6598521465458342e+00  1.5718162592345173e+00  1.5004064014579084e+00  1.4450876313465684e+00  1.4040274096057710e+00  1.3747299871294578e+00  1.3545706997776625e+00  1.3411536202750385e+00  1.3324923460172855e+00  1.3270554744942880e+00  1.3237291717408424e+00  1.3217415848974483e+00  1.3205794423088311e+00  1.3199134063127549e+00  1.3195386898949291e+00  1.3193314533733773e+00  1.3192186545673348e+00  1.3191581743663834e+00  1.3191262243577613e+00  1.3191096351038314e+00  1.3191012768285928e+00  1.3190974258597581e+00  1.3190963182585780e+00  1.3190974383092353e+00  1.3191013059558683e+00  1.3191096904193076e+00  1.3191263228595009e+00  1.3191583440349439e+00  1.3192189391852251e+00  1.3193319183348076e+00  1.3195394278641659e+00  1.3199145401715746e+00  1.3205811207535467e+00  1.3217439636186390e+00  1.3237323713947324e+00  1.3270595078023084e+00  1.3324970135250178e+00  1.3411583907034026e+00  1.3545746164921788e+00  1.3747316688239841e+00  1.4040252200046868e+00  1.4450800492048090e+00  1.5003925085552741e+00  1.5717961093379784e+00  1.6598266905260981e+00  1.7631563713033418e+00  1.8783269636508131e+00  2.0000000000000000e+00  2.0000000000000000e+00  1.8252989224424170e+00  1.6598521465458334e+00  1.5113381863793967e+00  1.3847201066063295e+00  1.2819241896898232e+00  1.2022122180799186e+00  1.1429824357157226e+00  1.1006731096651095e+00  1.0715271554837043e+00  1.0521067923131122e+00  1.0395560079741728e+00  1.0316689168155533e+00  1.0268383926461717e+00  1.0239489946134019e+00  1.0222578822875696e+00  1.0212877632255408e+00  1.0207414687461889e+00  1.0204390770961627e+00  1.0202743479733178e+00  1.0201859535980058e+00  1.0201392220138070e+00  1.0201149405624885e+00  1.0201026987086070e+00  1.0200970550989046e+00  1.0200954303843048e+00  1.0200970698049148e+00  1.0201027330221974e+00  1.0201150054702759e+00  1.0201393370499694e+00  1.0201861507077465e+00  1.0202746767619184e+00  1.0204396110102421e+00  1.0207423108195466e+00  1.0212890484724522e+00  1.0222597716426991e+00  1.0239516529298904e+00  1.0268419419054606e+00  1.0316733577224853e+00  1.0395611117804295e+00  1.0521119827988519e+00  1.0715314274193954e+00  1.1006750548121937e+00  1.1429804483243398e+00  1.2022048999929467e+00  1.2819108576436657e+00  1.3847011618867449e+00  1.5113150564194464e+00  1.6598266905260972e+00  1.8252725695458258e+00  2.0000000000000000e+00  2.0000000000000000e+00  1.7801140064307810e+00  1.5718162592345146e+00  1.3847201066063297e+00  1.2250675513823983e+00  1.0953114779122939e+00  9.9456881147373499e-01  9.1961157409477046e-01  8.6599232216452537e-01  8.2900205928630399e-01  8.0431933042306025e-01  7.8834482910431936e-01  7.7829214756578180e-01  7.7212688094389115e-01  7.6843422575336429e-01  7.6627022581574711e-01  7.6502730912312011e-01  7.6432657301786966e-01  7.6393825569099116e-01  7.6372649005903448e-01  7.6361273867395041e-01  7.6355254271206630e-01  7.6352123653288662e-01  7.6350543989726716e-01  7.6349815227968387e-01  7.6349605250594132e-01  7.6349816796679870e-01  7.6350547642879119e-01  7.6352130544429619e-01  7.6355266445118120e-01  7.6361294656260070e-01  7.6372683565355692e-01  7.6393881507207306e-01  7.6432745263725943e-01  7.6502864833123529e-01  7.6627219112051770e-01  7.6843698966933760e-01  7.7213057719138878e-01  7.7829679657983719e-01  7.8835023624940470e-01  8.0432497623655430e-01  8.2900702499003076e-01  8.6599531516957884e-01  9.1961111776860294e-01  9.9456361743142874e-01  1.0953009198772785e+00  1.2250520448915978e+00  1.3847011618867451e+00  1.5717961093379795e+00  1.7800949862142079e+00  2.0000000000000000e+00  2.0000000000000000e+00  1.7434834191486988e+00  1.5004064014579079e+00  1.2819241896898239e+00  1.0953114779122939e+00  9.4346423972584037e-01  8.2540969387411989e-01  7.3744121418016173e-01  6.7441612279175389e-01  6.3086708872438224e-01  6.0176063409150871e-01  5.8289264661749374e-01  5.7100016803521991e-01  5.6369518010608644e-01  5.5931325332091264e-01  5.5674154563825484e-01  5.5526236126773454e-01  5.5442728148666021e-01  5.5396390877289747e-01  5.5371089370770510e-01  5.5357482083795240e-01  5.5350272979278137e-01  5.5346519682398654e-01  5.5344623971035645e-01  5.5343748683854166e-01  5.5343496280212079e-01  5.5343750246337053e-01  5.5344627603547969e-01  5.5346526518432204e-01  5.5350285023841306e-01  5.5357502597152397e-01  5.5371123388408183e-01  5.5396445824155349e-01  5.5442814424313569e-01  5.5526367403851140e-01  5.5674347359572363e-01  5.5931597222744434e-01  5.6369883768089779e-01  5.7100481930280389e-01  5.8289816524587390e-01  6.0176661598910219e-01  6.3087278398989921e-01  6.7442044975703896e-01  7.3744290949081026e-01  8.2540761778552241e-01  9.4345778142288261e-01  1.0953009198772796e+00  1.2819108576436673e+00  1.5003925085552754e+00  1.7434716926247205e+00  2.0000000000000000e+00  2.0000000000000000e+00  1.7151254179046724e+00  1.4450876313465701e+00  1.2022122180799204e+00  9.9456881147373566e-01  8.2540969387412044e-01  6.9371655535583887e-01  5.9543797777240315e-01  5.2491390332432930e-01  4.7610268885429258e-01  4.4342436169738303e-01  4.2220522596637150e-01  4.0880844112613068e-01  4.0056587264253424e-01  3.9561356445018159e-01  3.9270254316070968e-01  3.9102564318810312e-01  3.9007754668809697e-01  3.8955071396121016e-01  3.8926265330480730e-01  3.8910752849493080e-01  3.8902524022592672e-01  3.8898234740430609e-01  3.8896065984632761e-01  3.8895063730823887e-01  3.8894774479191713e-01  3.8895065208043189e-01  3.8896069413343681e-01  3.8898241178420773e-01  3.8902535337764688e-01  3.8910772074366134e-01  3.8926297144533351e-01  3.8955122702252459e-01  3.9007835161714716e-01  3.9102686830811551e-01  3.9270434574236179e-01  3.9561611717069572e-01  4.0056933295934155e-01  4.0881289914096325e-01  4.2221063205460130e-01  4.4343044628386608e-01  4.7610890204920508e-01  5.2491941590212898e-01  5.9544178618799681e-01  6.9371770992375781e-01  8.2540761778552385e-01  9.9456361743143118e-01  1.2022048999929493e+00  1.4450800492048121e+00  1.7151200976863752e+00  2.0000000000000000e+00  2.0000000000000000e+00  1.6940915889044890e+00  1.4040274096057703e+00  1.1429824357157243e+00  9.1961157409477123e-01  7.3744121418016073e-01  5.9543797777240282e-01  4.8931547341936177e-01  4.1304722951546252e-01  3.6017672019275698e-01  3.2472322983397245e-01  3.0166424569945782e-01  2.8708192594845283e-01  2.7809530523092973e-01  2.7268727585964198e-01  2.6950336687749266e-01  2.6766644686524965e-01  2.6662632143008214e-01  2.6604750998143506e-01  2.6573058262693683e-01  2.6555968047865530e-01  2.6546890448024807e-01  2.6542152901049160e-01  2.6539754808340660e-01  2.6538645541243261e-01  2.6538325152110265e-01  2.6538646879270317e-01  2.6539757908826006e-01  2.6542158709424513e-01  2.6546900631119658e-01  2.6555985307987390e-01  2.6573086767210613e-01  2.6604796899734828e-01  2.6662704111279478e-01  2.6766754282645200e-01  2.6950498293949188e-01  2.7268957478371086e-01  2.7809844614915136e-01  2.8708602487518908e-01  3.0166931966809601e-01  3.2472913331526337e-01  3.6018309363474565e-01  4.1305349007390724e-01  4.8932087977126998e-01  5.9544178618799692e-01  7.3744290949081148e-01  9.1961111776860549e-01  1.1429804483243413e+00  1.4040252200046890e+00  1.6940911373390695e+00  2.0000000000000000e+00  2.0000000000000000e+00  1.6790945168856310e+00  1.3747299871294592e+00  1.1006731096651090e+00  8.6599232216452460e-01  6.7441612279175356e-01  5.2491390332432897e-01  4.1304722951546252e-01  3.3254173302105711e-01  2.7665400938268653e-01  2.3912170811226846e-01  2.1467372800857998e-01  1.9918940647423378e-01  1.8963233027645005e-01  1.8387227747219598e-01  1.8047603271223794e-01  1.7851371702315386e-01  1.7740098151572095e-01  1.7678088873503567e-01  1.7644089020996570e-01  1.7625730174096790e-01  1.7615966143223918e-01  1.7610864106886812e-01  1.7608278632237212e-01  1.7607081585654444e-01  1.7606735582747376e-01  1.7607082753504152e-01  1.7608281333659886e-01  1.7610869155474390e-01  1.7615974970985845e-01  1.7625745099267051e-01  1.7644113616260224e-01  1.7678128417724401e-01  1.7740160106737343e-01  1.7851466089850013e-01  1.8047742731061980e-01  1.8387426969139140e-01  1.8963507194510715e-01  1.9919302601896394e-01  2.1467828933611263e-01  2.3912716228816516e-01  2.7666015243691555e-01  3.3254819046090778e-01  4.1305349007390801e-01  5.2491941590212965e-01  6.7442044975704118e-01  8.6599531516958161e-01  1.1006750548121966e+00  1.3747316688239886e+00  1.6790971771368266e+00  2.0000000000000000e+00  2.0000000000000000e+00  1.6687829201223618e+00  1.3545706997776621e+00  1.0715271554837027e+00  8.2900205928630288e-01  6.3086708872438191e-01  4.7610268885429108e-01  3.6017672019275687e-01  2.7665400938268664e-01  2.1860062849576803e-01  1.7956394354631661e-01  1.5410240502725842e-01  1.3795440198187886e-01  1.2797412677544837e-01  1.2195080181910542e-01  1.1839449529217148e-01  1.1633692521948721e-01  1.1516862042712672e-01  1.1451670629957093e-01  1.1415879972738813e-01  1.1396529816969726e-01  1.1386225987370810e-01  1.1380835607660054e-01  1.1378101101824763e-01  1.1376833938918886e-01  1.1376467413115127e-01  1.1376834924965931e-01  1.1378103378457059e-01  1.1380839851393984e-01  1.1386233386766531e-01  1.1396542292923978e-01  1.1415900482794240e-01  1.1451703545894111e-01  1.1516913560462289e-01  1.1633771013454546e-01  1.1839565679472407e-01  1.2195246685077002e-01  1.2797643226238298e-01  1.3795747542196543e-01  1.5410633539186486e-01  1.7956874579630280e-01  2.1860621014069989e-01  2.7666015243691605e-01  3.6018309363474704e-01  4.7610890204920581e-01  6.3087278398990110e-01  8.2900702499003365e-01  1.0715314274193977e+00  1.3545746164921826e+00  1.6687871109515637e+00  2.0000000000000000e+00  2.0000000000000000e+00  1.6619251662532866e+00  1.3411536202750394e+00  1.0521067923131140e+00  8.0431933042305970e-01  6.0176063409150748e-01  4.4342436169738236e-01  3.2472322983397228e-01  2.3912170811226877e-01  1.7956394354631691e-01  1.3947333003117368e-01  1.1329556130788572e-01  9.6674476635182943e-02  8.6389918642826927e-02  8.0175674930814941e-02  7.6502317607135967e-02  7.4374516284323192e-02  7.3164912209249477e-02  7.2489164812028856e-02  7.2117745014595960e-02  7.1916709109601018e-02  7.1809539794800079e-02  7.1753415028784198e-02  7.1724915375533216e-02  7.1711697984133960e-02  7.1707872454212562e-02  7.1711706060255065e-02  7.1724933984810654e-02  7.1753449620815049e-02  7.1809599924040485e-02  7.1916810186627114e-02  7.2117910734122617e-02  7.2489430193796556e-02  7.3165326973868211e-02  7.4375147935735866e-02  7.6503253121392792e-02  8.0177019451763282e-02  8.6391789273159728e-02  9.6676989627581617e-02  1.1329881210082232e-01  1.3947736788472612e-01  1.7956874579630305e-01  2.3912716228816575e-01  3.2472913331526454e-01  4.4343044628386763e-01  6.0176661598910441e-01  8.0432497623655785e-01  1.0521119827988556e+00  1.3411583907034068e+00  1.6619297081114768e+00  2.0000000000000000e+00  2.0000000000000000e+00  1.6575014976644737e+00  1.3324923460172875e+00  1.0395560079741746e+00  7.8834482910431991e-01  5.8289264661749385e-01  4.2220522596637167e-01  3.0166424569945888e-01  2.1467372800858081e-01  1.5410240502725889e-01  1.1329556130788598e-01  8.6626730888804418e-02  6.9678377631294752e-02  5.9181429791001924e-02  5.2832734908196385e-02  4.9076221039163932e-02  4.6898094488009849e-02  4.5658647313848562e-02  4.4965536587446266e-02  4.4584193647538552e-02  4.4377582563104791e-02  4.4267333928647151e-02  4.4209542162627014e-02  4.4180170516582365e-02  4.4166538883534966e-02  4.4162591278476500e-02  4.4166545313578831e-02  4.4180185301223550e-02  4.4209569562978064e-02  4.4267381397869530e-02  4.4377662093846290e-02  4.4584323644630365e-02  4.4965744229722639e-02  4.5658971221238770e-02  4.6898587267721878e-02  4.9076950957322084e-02  5.2833785581639536e-02  5.9182896554710360e-02  6.9680359325400579e-02  8.6629316472275578e-02  1.1329881210082260e-01  1.5410633539186533e-01  2.1467828933611346e-01  3.0166931966809746e-01  4.2221063205460341e-01  5.8289816524587656e-01  7.8835023624940936e-01  1.0395611117804346e+00  1.3324970135250225e+00  1.6575056621179201e+00  2.0000000000000000e+00  2.0000000000000000e+00  1.6547266859853929e+00  1.3270554744942893e+00  1.0316689168155539e+00  7.7829214756578280e-01  5.7100016803522069e-01  4.0880844112613135e-01  2.8708192594845361e-01  1.9918940647423497e-01  1.3795440198187983e-01  9.6674476635183415e-02  6.9678377631294960e-02  5.2509923676519688e-02  4.1868823076454349e-02  3.5428037545916620e-02  3.1614049657397808e-02  2.9400829657031707e-02  2.8140389524362652e-02  2.7434960142454091e-02  2.7046518483304364e-02  2.6835886930140846e-02  2.6723400492137946e-02  2.6664388449591517e-02  2.6634374307463043e-02  2.6620435847808165e-02  2.6616397489655365e-02  2.6620440832692924e-02  2.6634385743109546e-02  2.6664409575289497e-02  2.6723436958712529e-02  2.6835947804647639e-02  2.7046617646957413e-02  2.7435118061850037e-02  2.8140635276172010e-02  2.9401202922243803e-02  3.1614602178656803e-02  3.5428833298575629e-02  4.1869936225465462e-02  5.2511433409604152e-02  6.9680359325400898e-02  9.6676989627582283e-02  1.3795747542196621e-01  1.9919302601896502e-01  2.8708602487519103e-01  4.0881289914096652e-01  5.7100481930280833e-01  7.7829679657984274e-01  1.0316733577224926e+00  1.3270595078023171e+00  1.6547301272694375e+00  2.0000000000000000e+00  2.0000000000000000e+00  1.6530302452960930e+00  1.3237291717408426e+00  1.0268383926461717e+00  7.7212688094389170e-01  5.6369518010608810e-01  4.0056587264253468e-01  2.7809530523093140e-01  1.8963233027645154e-01  1.2797412677544961e-01  8.6389918642827634e-02  5.9181429791002264e-02  4.1868823076454502e-02  3.1132434218422510e-02  2.4630208169935639e-02  2.0777520087295658e-02  1.8540453519311245e-02  1.7265619798834959e-02  1.6551669692174129e-02  1.6158275586184781e-02  1.5944815663887866e-02  1.5830742265651534e-02  1.5770858275839530e-02  1.5740381904467905e-02  1.5726221494100124e-02  1.5722117236003051e-02  1.5726225262244490e-02  1.5740390527948074e-02  1.5770874152033973e-02  1.5830769564315280e-02  1.5944861054013316e-02  1.6158349247177933e-02  1.6551786598092651e-02  1.7265801197989494e-02  1.8540728422411761e-02  2.0777926428867749e-02  2.4630793143180067e-02  3.1133253154517756e-02  4.1869936225465650e-02  5.9182896554711026e-02  8.6391789273160671e-02  1.2797643226238406e-01  1.8963507194510862e-01  2.7809844614915397e-01  4.0056933295934510e-01  5.6369883768090234e-01  7.7213057719139611e-01  1.0268419419054688e+00  1.3237323713947418e+00  1.6530328838227935e+00  2.0000000000000000e+00  2.0000000000000000e+00  1.6520172542475349e+00  1.3217415848974490e+00  1.0239489946134028e+00  7.6843422575336462e-01  5.5931325332091331e-01  3.9561356445018236e-01  2.7268727585964264e-01  1.8387227747219700e-01  1.2195080181910618e-01  8.0175674930815385e-02  5.2832734908196635e-02  3.5428037545916724e-02  2.4630208169935650e-02  1.8087995082424868e-02  1.4209884239602040e-02  1.1957006930015425e-02  1.0672542382257786e-02  9.9528395492973609e-03  9.5560722696571565e-03  9.3406693263894704e-03  9.2254966706666591e-03  9.1650039608305606e-03  9.1342026248711090e-03  9.1198852911286918e-03  9.1157342561380417e-03  9.1198880717955760e-03  9.1342089723021186e-03  9.1650156044730917e-03  9.2255166087501193e-03  9.3407023367414934e-03  9.5561256193169315e-03  9.9529238960095537e-03  1.0672672817344797e-02  1.1957204040735843e-02  1.4210174971819756e-02  1.8088413075189356e-02  2.4630793143180188e-02  3.5428833298575976e-02  5.2833785581640182e-02  8.0177019451764420e-02  1.2195246685077145e-01  1.8387426969139345e-01  2.7268957478371364e-01  3.9561611717069978e-01  5.5931597222745033e-01  7.6843698966934570e-01  1.0239516529298995e+00  1.3217439636186488e+00  1.6520191625661476e+00  2.0000000000000000e+00  2.0000000000000000e+00  1.6514253487181423e+00  1.3205794423088342e+00  1.0222578822875699e+00  7.6627022581574777e-01  5.5674154563825473e-01  3.9270254316070935e-01  2.6950336687749282e-01  1.8047603271223842e-01  1.1839449529217183e-01  7.6502317607136133e-02  4.9076221039164113e-02  3.1614049657397843e-02  2.0777520087295658e-02  1.4209884239602025e-02  1.0315458508342399e-02  8.0523398107220940e-03  6.7615790257054510e-03  6.0380808632055907e-03  5.6390681357709888e-03  5.4223604046559765e-03  5.3064432999217932e-03  5.2455350351666560e-03  5.2145102535484933e-03  5.2000843937976505e-03  5.1959008771340753e-03  5.2000863990910333e-03  5.2145148188631777e-03  5.2455433779201970e-03  5.3064575232193564e-03  5.4223838464059699e-03  5.6391058524143077e-03  6.0381402432542596e-03  6.7616705000598789e-03  8.0524775807591809e-03  1.0315661150154266e-02  1.4210174971819822e-02  2.0777926428867922e-02  3.1614602178657164e-02  4.9076950957322757e-02  7.6503253121393777e-02  1.1839565679472538e-01  1.8047742731062194e-01  2.6950498293949515e-01  3.9270434574236601e-01  5.5674347359572973e-01  7.6627219112052558e-01  1.0222597716427073e+00  1.3205811207535556e+00  1.6514266645782136e+00  2.0000000000000000e+00  2.0000000000000000e+00  1.6510863364341808e+00  1.3199134063127556e+00  1.0212877632255404e+00  7.6502730912311923e-01  5.5526236126773476e-01  3.9102564318810301e-01  2.6766644686524982e-01  1.7851371702315402e-01  1.1633692521948745e-01  7.4374516284323219e-02  4.6898094488009953e-02  2.9400829657031759e-02  1.8540453519311245e