<?xml version="1.0"?>
<VTKFile type="UnstructuredGrid"  version="0.1"  >
<UnstructuredGrid>
<Piece  NumberOfPoints="2601" NumberOfCells="5000">
<Points>
<DataArray  type="Float64"  NumberOfComponents="3"  format="ascii">0 0 0  0.02 0 0  0.04 0 0  0.06 0 0  0.08 0 0  0.1 0 0  0.12 0 0  0.14 0 0  0.16 0 0  0.18 0 0  0.2 0 0  0.22 0 0  0.24 0 0  0.26 0 0  0.28 0 0  0.3 0 0  0.32 0 0  0.34 0 0  0.36 0 0  0.38 0 0  0.4 0 0  0.42 0 0  0.44 0 0  0.46 0 0  0.48 0 0  0.5 0 0  0.52 0 0  0.54 0 0  0.5600000000000001 0 0  0.58 0 0  0.6 0 0  0.62 0 0  0.64 0 0  0.66 0 0  0.68 0 0  0.7 0 0  0.72 0 0  0.74 0 0  0.76 0 0  0.78 0 0  0.8 0 0  0.82 0 0  0.84 0 0  0.86 0 0  0.88 0 0  0.9 0 0  0.92 0 0  0.9399999999999999 0 0  0.96 0 0  0.98 0 0  1 0 0  0 0.02 0  0.02 0.02 0  0.04 0.02 0  0.06 0.02 0  0.08 0.02 0  0.1 0.02 0  0.12 0.02 0  0.14 0.02 0  0.16 0.02 0  0.18 0.02 0  0.2 0.02 0  0.22 0.02 0  0.24 0.02 0  0.26 0.02 0  0.28 0.02 0  0.3 0.02 0  0.32 0.02 0  0.34 0.02 0  0.36 0.02 0  0.38 0.02 0  0.4 0.02 0  0.42 0.02 0  0.44 0.02 0  0.46 0.02 0  0.48 0.02 0  0.5 0.02 0  0.52 0.02 0  0.54 0.02 0  0.5600000000000001 0.02 0  0.58 0.02 0  0.6 0.02 0  0.62 0.02 0  0.64 0.02 0  0.66 0.02 0  0.68 0.02 0  0.7 0.02 0  0.72 0.02 0  0.74 0.02 0  0.76 0.02 0  0.78 0.02 0  0.8 0.02 0  0.82 0.02 0  0.84 0.02 0  0.86 0.02 0  0.88 0.02 0  0.9 0.02 0  0.92 0.02 0  0.9399999999999999 0.02 0  0.96 0.02 0  0.98 0.02 0  1 0.02 0  0 0.04 0  0.02 0.04 0  0.04 0.04 0  0.06 0.04 0  0.08 0.04 0  0.1 0.04 0  0.12 0.04 0  0.14 0.04 0  0.16 0.04 0  0.18 0.04 0  0.2 0.04 0  0.22 0.04 0  0.24 0.04 0  0.26 0.04 0  0.28 0.04 0  0.3 0.04 0  0.32 0.04 0  0.34 0.04 0  0.36 0.04 0  0.38 0.04 0  0.4 0.04 0  0.42 0.04 0  0.44 0.04 0  0.46 0.04 0  0.48 0.04 0  0.5 0.04 0  0.52 0.04 0  0.54 0.04 0  0.5600000000000001 0.04 0  0.58 0.04 0  0.6 0.04 0  0.62 0.04 0  0.64 0.04 0  0.66 0.04 0  0.68 0.04 0  0.7 0.04 0  0.72 0.04 0  0.74 0.04 0  0.76 0.04 0  0.78 0.04 0  0.8 0.04 0  0.82 0.04 0  0.84 0.04 0  0.86 0.04 0  0.88 0.04 0  0.9 0.04 0  0.92 0.04 0  0.9399999999999999 0.04 0  0.96 0.04 0  0.98 0.04 0  1 0.04 0  0 0.06 0  0.02 0.06 0  0.04 0.06 0  0.06 0.06 0  0.08 0.06 0  0.1 0.06 0  0.12 0.06 0  0.14 0.06 0  0.16 0.06 0  0.18 0.06 0  0.2 0.06 0  0.22 0.06 0  0.24 0.06 0  0.26 0.06 0  0.28 0.06 0  0.3 0.06 0  0.32 0.06 0  0.34 0.06 0  0.36 0.06 0  0.38 0.06 0  0.4 0.06 0  0.42 0.06 0  0.44 0.06 0  0.46 0.06 0  0.48 0.06 0  0.5 0.06 0  0.52 0.06 0  0.54 0.06 0  0.5600000000000001 0.06 0  0.58 0.06 0  0.6 0.06 0  0.62 0.06 0  0.64 0.06 0  0.66 0.06 0  0.68 0.06 0  0.7 0.06 0  0.72 0.06 0  0.74 0.06 0  0.76 0.06 0  0.78 0.06 0  0.8 0.06 0  0.82 0.06 0  0.84 0.06 0  0.86 0.06 0  0.88 0.06 0  0.9 0.06 0  0.92 0.06 0  0.9399999999999999 0.06 0  0.96 0.06 0  0.98 0.06 0  1 0.06 0  0 0.08 0  0.02 0.08 0  0.04 0.08 0  0.06 0.08 0  0.08 0.08 0  0.1 0.08 0  0.12 0.08 0  0.14 0.08 0  0.16 0.08 0  0.18 0.08 0  0.2 0.08 0  0.22 0.08 0  0.24 0.08 0  0.26 0.08 0  0.28 0.08 0  0.3 0.08 0  0.32 0.08 0  0.34 0.08 0  0.36 0.08 0  0.38 0.08 0  0.4 0.08 0  0.42 0.08 0  0.44 0.08 0  0.46 0.08 0  0.48 0.08 0  0.5 0.08 0  0.52 0.08 0  0.54 0.08 0  0.5600000000000001 0.08 0  0.58 0.08 0  0.6 0.08 0  0.62 0.08 0  0.64 0.08 0  0.66 0.08 0  0.68 0.08 0  0.7 0.08 0  0.72 0.08 0  0.74 0.08 0  0.76 0.08 0  0.78 0.08 0  0.8 0.08 0  0.82 0.08 0  0.84 0.08 0  0.86 0.08 0  0.88 0.08 0  0.9 0.08 0  0.92 0.08 0  0.9399999999999999 0.08 0  0.96 0.08 0  0.98 0.08 0  1 0.08 0  0 0.1 0  0.02 0.1 0  0.04 0.1 0  0.06 0.1 0  0.08 0.1 0  0.1 0.1 0  0.12 0.1 0  0.14 0.1 0  0.16 0.1 0  0.18 0.1 0  0.2 0.1 0  0.22 0.1 0  0.24 0.1 0  0.26 0.1 0  0.28 0.1 0  0.3 0.1 0  0.32 0.1 0  0.34 0.1 0  0.36 0.1 0  0.38 0.1 0  0.4 0.1 0  0.42 0.1 0  0.44 0.1 0  0.46 0.1 0  0.48 0.1 0  0.5 0.1 0  0.52 0.1 0  0.54 0.1 0  0.5600000000000001 0.1 0  0.58 0.1 0  0.6 0.1 0  0.62 0.1 0  0.64 0.1 0  0.66 0.1 0  0.68 0.1 0  0.7 0.1 0  0.72 0.1 0  0.74 0.1 0  0.76 0.1 0  0.78 0.1 0  0.8 0.1 0  0.82 0.1 0  0.84 0.1 0  0.86 0.1 0  0.88 0.1 0  0.9 0.1 0  0.92 0.1 0  0.9399999999999999 0.1 0  0.96 0.1 0  0.98 0.1 0  1 0.1 0  0 0.12 0  0.02 0.12 0  0.04 0.12 0  0.06 0.12 0  0.08 0.12 0  0.1 0.12 0  0.12 0.12 0  0.14 0.12 0  0.16 0.12 0  0.18 0.12 0  0.2 0.12 0  0.22 0.12 0  0.24 0.12 0  0.26 0.12 0  0.28 0.12 0  0.3 0.12 0  0.32 0.12 0  0.34 0.12 0  0.36 0.12 0  0.38 0.12 0  0.4 0.12 0  0.42 0.12 0  0.44 0.12 0  0.46 0.12 0  0.48 0.12 0  0.5 0.12 0  0.52 0.12 0  0.54 0.12 0  0.5600000000000001 0.12 0  0.58 0.12 0  0.6 0.12 0  0.62 0.12 0  0.64 0.12 0  0.66 0.12 0  0.68 0.12 0  0.7 0.12 0  0.72 0.12 0  0.74 0.12 0  0.76 0.12 0  0.78 0.12 0  0.8 0.12 0  0.82 0.12 0  0.84 0.12 0  0.86 0.12 0  0.88 0.12 0  0.9 0.12 0  0.92 0.12 0  0.9399999999999999 0.12 0  0.96 0.12 0  0.98 0.12 0  1 0.12 0  0 0.14 0  0.02 0.14 0  0.04 0.14 0  0.06 0.14 0  0.08 0.14 0  0.1 0.14 0  0.12 0.14 0  0.14 0.14 0  0.16 0.14 0  0.18 0.14 0  0.2 0.14 0  0.22 0.14 0  0.24 0.14 0  0.26 0.14 0  0.28 0.14 0  0.3 0.14 0  0.32 0.14 0  0.34 0.14 0  0.36 0.14 0  0.38 0.14 0  0.4 0.14 0  0.42 0.14 0  0.44 0.14 0  0.46 0.14 0  0.48 0.14 0  0.5 0.14 0  0.52 0.14 0  0.54 0.14 0  0.5600000000000001 0.14 0  0.58 0.14 0  0.6 0.14 0  0.62 0.14 0  0.64 0.14 0  0.66 0.14 0  0.68 0.14 0  0.7 0.14 0  0.72 0.14 0  0.74 0.14 0  0.76 0.14 0  0.78 0.14 0  0.8 0.14 0  0.82 0.14 0  0.84 0.14 0  0.86 0.14 0  0.88 0.14 0  0.9 0.14 0  0.92 0.14 0  0.9399999999999999 0.14 0  0.96 0.14 0  0.98 0.14 0  1 0.14 0  0 0.16 0  0.02 0.16 0  0.04 0.16 0  0.06 0.16 0  0.08 0.16 0  0.1 0.16 0  0.12 0.16 0  0.14 0.16 0  0.16 0.16 0  0.18 0.16 0  0.2 0.16 0  0.22 0.16 0  0.24 0.16 0  0.26 0.16 0  0.28 0.16 0  0.3 0.16 0  0.32 0.16 0  0.34 0.16 0  0.36 0.16 0  0.38 0.16 0  0.4 0.16 0  0.42 0.16 0  0.44 0.16 0  0.46 0.16 0  0.48 0.16 0  0.5 0.16 0  0.52 0.16 0  0.54 0.16 0  0.5600000000000001 0.16 0  0.58 0.16 0  0.6 0.16 0  0.62 0.16 0  0.64 0.16 0  0.66 0.16 0  0.68 0.16 0  0.7 0.16 0  0.72 0.16 0  0.74 0.16 0  0.76 0.16 0  0.78 0.16 0  0.8 0.16 0  0.82 0.16 0  0.84 0.16 0  0.86 0.16 0  0.88 0.16 0  0.9 0.16 0  0.92 0.16 0  0.9399999999999999 0.16 0  0.96 0.16 0  0.98 0.16 0  1 0.16 0  0 0.18 0  0.02 0.18 0  0.04 0.18 0  0.06 0.18 0  0.08 0.18 0  0.1 0.18 0  0.12 0.18 0  0.14 0.18 0  0.16 0.18 0  0.18 0.18 0  0.2 0.18 0  0.22 0.18 0  0.24 0.18 0  0.26 0.18 0  0.28 0.18 0  0.3 0.18 0  0.32 0.18 0  0.34 0.18 0  0.36 0.18 0  0.38 0.18 0  0.4 0.18 0  0.42 0.18 0  0.44 0.18 0  0.46 0.18 0  0.48 0.18 0  0.5 0.18 0  0.52 0.18 0  0.54 0.18 0  0.5600000000000001 0.18 0  0.58 0.18 0  0.6 0.18 0  0.62 0.18 0  0.64 0.18 0  0.66 0.18 0  0.68 0.18 0  0.7 0.18 0  0.72 0.18 0  0.74 0.18 0  0.76 0.18 0  0.78 0.18 0  0.8 0.18 0  0.82 0.18 0  0.84 0.18 0  0.86 0.18 0  0.88 0.18 0  0.9 0.18 0  0.92 0.18 0  0.9399999999999999 0.18 0  0.96 0.18 0  0.98 0.18 0  1 0.18 0  0 0.2 0  0.02 0.2 0  0.04 0.2 0  0.06 0.2 0  0.08 0.2 0  0.1 0.2 0  0.12 0.2 0  0.14 0.2 0  0.16 0.2 0  0.18 0.2 0  0.2 0.2 0  0.22 0.2 0  0.24 0.2 0  0.26 0.2 0  0.28 0.2 0  0.3 0.2 0  0.32 0.2 0  0.34 0.2 0  0.36 0.2 0  0.38 0.2 0  0.4 0.2 0  0.42 0.2 0  0.44 0.2 0  0.46 0.2 0  0.48 0.2 0  0.5 0.2 0  0.52 0.2 0  0.54 0.2 0  0.5600000000000001 0.2 0  0.58 0.2 0  0.6 0.2 0  0.62 0.2 0  0.64 0.2 0  0.66 0.2 0  0.68 0.2 0  0.7 0.2 0  0.72 0.2 0  0.74 0.2 0  0.76 0.2 0  0.78 0.2 0  0.8 0.2 0  0.82 0.2 0  0.84 0.2 0  0.86 0.2 0  0.88 0.2 0  0.9 0.2 0  0.92 0.2 0  0.9399999999999999 0.2 0  0.96 0.2 0  0.98 0.2 0  1 0.2 0  0 0.22 0  0.02 0.22 0  0.04 0.22 0  0.06 0.22 0  0.08 0.22 0  0.1 0.22 0  0.12 0.22 0  0.14 0.22 0  0.16 0.22 0  0.18 0.22 0  0.2 0.22 0  0.22 0.22 0  0.24 0.22 0  0.26 0.22 0  0.28 0.22 0  0.3 0.22 0  0.32 0.22 0  0.34 0.22 0  0.36 0.22 0  0.38 0.22 0  0.4 0.22 0  0.42 0.22 0  0.44 0.22 0  0.46 0.22 0  0.48 0.22 0  0.5 0.22 0  0.52 0.22 0  0.54 0.22 0  0.5600000000000001 0.22 0  0.58 0.22 0  0.6 0.22 0  0.62 0.22 0  0.64 0.22 0  0.66 0.22 0  0.68 0.22 0  0.7 0.22 0  0.72 0.22 0  0.74 0.22 0  0.76 0.22 0  0.78 0.22 0  0.8 0.22 0  0.82 0.22 0  0.84 0.22 0  0.86 0.22 0  0.88 0.22 0  0.9 0.22 0  0.92 0.22 0  0.9399999999999999 0.22 0  0.96 0.22 0  0.98 0.22 0  1 0.22 0  0 0.24 0  0.02 0.24 0  0.04 0.24 0  0.06 0.24 0  0.08 0.24 0  0.1 0.24 0  0.12 0.24 0  0.14 0.24 0  0.16 0.24 0  0.18 0.24 0  0.2 0.24 0  0.22 0.24 0  0.24 0.24 0  0.26 0.24 0  0.28 0.24 0  0.3 0.24 0  0.32 0.24 0  0.34 0.24 0  0.36 0.24 0  0.38 0.24 0  0.4 0.24 0  0.42 0.24 0  0.44 0.24 0  0.46 0.24 0  0.48 0.24 0  0.5 0.24 0  0.52 0.24 0  0.54 0.24 0  0.5600000000000001 0.24 0  0.58 0.24 0  0.6 0.24 0  0.62 0.24 0  0.64 0.24 0  0.66 0.24 0  0.68 0.24 0  0.7 0.24 0  0.72 0.24 0  0.74 0.24 0  0.76 0.24 0  0.78 0.24 0  0.8 0.24 0  0.82 0.24 0  0.84 0.24 0  0.86 0.24 0  0.88 0.24 0  0.9 0.24 0  0.92 0.24 0  0.9399999999999999 0.24 0  0.96 0.24 0  0.98 0.24 0  1 0.24 0  0 0.26 0  0.02 0.26 0  0.04 0.26 0  0.06 0.26 0  0.08 0.26 0  0.1 0.26 0  0.12 0.26 0  0.14 0.26 0  0.16 0.26 0  0.18 0.26 0  0.2 0.26 0  0.22 0.26 0  0.24 0.26 0  0.26 0.26 0  0.28 0.26 0  0.3 0.26 0  0.32 0.26 0  0.34 0.26 0  0.36 0.26 0  0.38 0.26 0  0.4 0.26 0  0.42 0.26 0  0.44 0.26 0  0.46 0.26 0  0.48 0.26 0  0.5 0.26 0  0.52 0.26 0  0.54 0.26 0  0.5600000000000001 0.26 0  0.58 0.26 0  0.6 0.26 0  0.62 0.26 0  0.64 0.26 0  0.66 0.26 0  0.68 0.26 0  0.7 0.26 0  0.72 0.26 0  0.74 0.26 0  0.76 0.26 0  0.78 0.26 0  0.8 0.26 0  0.82 0.26 0  0.84 0.26 0  0.86 0.26 0  0.88 0.26 0  0.9 0.26 0  0.92 0.26 0  0.9399999999999999 0.26 0  0.96 0.26 0  0.98 0.26 0  1 0.26 0  0 0.28 0  0.02 0.28 0  0.04 0.28 0  0.06 0.28 0  0.08 0.28 0  0.1 0.28 0  0.12 0.28 0  0.14 0.28 0  0.16 0.28 0  0.18 0.28 0  0.2 0.28 0  0.22 0.28 0  0.24 0.28 0  0.26 0.28 0  0.28 0.28 0  0.3 0.28 0  0.32 0.28 0  0.34 0.28 0  0.36 0.28 0  0.38 0.28 0  0.4 0.28 0  0.42 0.28 0  0.44 0.28 0  0.46 0.28 0  0.48 0.28 0  0.5 0.28 0  0.52 0.28 0  0.54 0.28 0  0.5600000000000001 0.28 0  0.58 0.28 0  0.6 0.28 0  0.62 0.28 0  0.64 0.28 0  0.66 0.28 0  0.68 0.28 0  0.7 0.28 0  0.72 0.28 0  0.74 0.28 0  0.76 0.28 0  0.78 0.28 0  0.8 0.28 0  0.82 0.28 0  0.84 0.28 0  0.86 0.28
[...]
<PointData  Scalars="f_12"> 
<DataArray  type="Float64"  Name="f_12"  format="ascii">2.0000000000000000e+00  2.0000000000000000e+00  2.0000000000000000e+00  2.0000000000000000e+00  2.0000000000000000e+00  2.0000000000000000e+00  2.0000000000000000e+00  2.0000000000000000e+00  2.0000000000000000e+00  2.0000000000000000e+00  2.0000000000000000e+00  2.0000000000000000e+00  2.0000000000000000e+00  2.0000000000000000e+00  2.0000000000000000e+00  2.0000000000000000e+00  2.0000000000000000e+00  2.0000000000000000e+00  2.0000000000000000e+00  2.0000000000000000e+00  2.0000000000000000e+00  2.0000000000000000e+00  2.0000000000000000e+00  2.0000000000000000e+00  2.0000000000000000e+00  2.0000000000000000e+00  2.0000000000000000e+00  2.0000000000000000e+00  2.0000000000000000e+00  2.0000000000000000e+00  2.0000000000000000e+00  2.0000000000000000e+00  2.0000000000000000e+00  2.0000000000000000e+00  2.0000000000000000e+00  2.0000000000000000e+00  2.0000000000000000e+00  2.0000000000000000e+00  2.0000000000000000e+00  2.0000000000000000e+00  2.0000000000000000e+00  2.0000000000000000e+00  2.0000000000000000e+00  2.0000000000000000e+00  2.0000000000000000e+00  2.0000000000000000e+00  2.0000000000000000e+00  2.0000000000000000e+00  2.0000000000000000e+00  2.0000000000000000e+00  2.0000000000000000e+00  2.0000000000000000e+00  1.9629464452135570e+00  1.9270195646826538e+00  1.8932535141500950e+00  1.8624728389702234e+00  1.8352430382910356e+00  1.8118505975374657e+00  1.7923197584902768e+00  1.7764572474948133e+00  1.7639128195915137e+00  1.7542433983840473e+00  1.7469710431880110e+00  1.7416286893801445e+00  1.7377913663277931e+00  1.7350935688991500e+00  1.7332352936188837e+00  1.7319799934038835e+00  1.7311476277316813e+00  1.7306054279416589e+00  1.7302582585182520e+00  1.7300397416017241e+00  1.7299047346873095e+00  1.7298233462786636e+00  1.7297764298106266e+00  1.7297523790333251e+00  1.7297450202323683e+00  1.7297524251381249e+00  1.7297765286617135e+00  1.7298235112824667e+00  1.7299049860893430e+00  1.7300401061588322e+00  1.7302587682346704e+00  1.7306061171801772e+00  1.7311485279453904e+00  1.7319811248512034e+00  1.7332366538358275e+00  1.7350951184960126e+00  1.7377930138499253e+00  1.7416302783505679e+00  1.7469723456283472e+00  1.7542441194752536e+00  1.7639126170243744e+00  1.7764557660773712e+00  1.7923166759769444e+00  1.8118456725198668e+00  1.8352361469588376e+00  1.8624639854472662e+00  1.8932427954908269e+00  1.9270070448752028e+00  1.9629317197785250e+00  2.0000000000000000e+00  2.0000000000000000e+00  1.9270195646826551e+00  1.8562654842186959e+00  1.7897625820721952e+00  1.7291340978549119e+00  1.6754936149804605e+00  1.6294059986239893e+00  1.5909202529343531e+00  1.5596573103908575e+00  1.5349289637524990e+00  1.5158639468311030e+00  1.5015219590472784e+00  1.4909837099134569e+00  1.4834124392747920e+00  1.4780882127042150e+00  1.4744199074731563e+00  1.4719412756481165e+00  1.4702973287750769e+00  1.4692261996743299e+00  1.4685401873730175e+00  1.4681082886663794e+00  1.4678413836081050e+00  1.4676804436683206e+00  1.4675876487453212e+00  1.4675400673610710e+00  1.4675254985945163e+00  1.4675401296885755e+00  1.4675877815534439e+00  1.4676806631905559e+00  1.4678417137774435e+00  1.4681087599613545e+00  1.4685408342255719e+00  1.4692270556580675e+00  1.4702984188531041e+00  1.4719426051182238e+00  1.4744214480182098e+00  1.4780898871724619e+00  1.4834141083386700e+00  1.4909851651789487e+00  1.5015229278114968e+00  1.5158641126610224e+00  1.5349280037279869e+00  1.5596549442919065e+00  1.5909162931290679e+00  1.6294003844179881e+00  1.6754864145609729e+00  1.7291254661677513e+00  1.7897526727688109e+00  1.8562543306750996e+00  1.9270070448752024e+00  2.0000000000000000e+00  2.0000000000000000e+00  1.8932535141500952e+00  1.7897625820721941e+00  1.6924802061514126e+00  1.6037782986722866e+00  1.5252854693469367e+00  1.4578296595818760e+00  1.4014856544379652e+00  1.3557027579480740e+00  1.3194780402149280e+00  1.2915402128844820e+00  1.2705161104642746e+00  1.2550623285066933e+00  1.2439553142663180e+00  1.2361417345212993e+00  1.2307562407868649e+00  1.2271159238074012e+00  1.2247005643143856e+00  1.2231262134957035e+00  1.2221175291659523e+00  1.2214822483960839e+00  1.2210895168424629e+00  1.2208526254511669e+00  1.2207159966618111e+00  1.2206459202918380e+00  1.2206244553945336e+00  1.2206459937718335e+00  1.2207161528349735e+00  1.2208528825595397e+00  1.2210899015166690e+00  1.2214827940297295e+00  1.2221182725657314e+00  1.2231271889756283e+00  1.2247017945364442e+00  1.2271174071649638e+00  1.2307579360921843e+00  1.2361435451967611e+00  1.2439570759341556e+00  1.2550638052948260e+00  1.2705170056586772e+00  1.2915401978121794e+00  1.3194768008243496e+00  1.3557000518114493e+00  1.4014813636420520e+00  1.4578238203845286e+00  1.5252782610599214e+00  1.6037699839631383e+00  1.6924710320297260e+00  1.7897526727688104e+00  1.8932427954908291e+00  2.0000000000000000e+00  2.0000000000000000e+00  1.8624728389702219e+00  1.7291340978549090e+00  1.6037782986722866e+00  1.4894574146448261e+00  1.3882693581308601e+00  1.3012837575367686e+00  1.2286022270941737e+00  1.1695216180507002e+00  1.1227560237866743e+00  1.0866727694511538e+00  1.0595063964246663e+00  1.0395281471210165e+00  1.0251622154165336e+00  1.0150509857324428e+00  1.0080783170024008e+00  1.0033627589973197e+00  1.0002323889230136e+00  9.9819096142697983e-01  9.9688237150348913e-01  9.9605780539146815e-01  9.9554781756720734e-01  9.9524006255497421e-01  9.9506249278464354e-01  9.9497138840579435e-01  9.9494347296873031e-01  9.9497146840420858e-01  9.9506266262810561e-01  9.9524034171082698e-01  9.9554823438647633e-01  9.9605839530847540e-01  9.9688317340920918e-01  9.9819201137336688e-01  1.0002337104799339e+00  1.0033643501272440e+00  1.0080801343449022e+00  1.0150529286861789e+00  1.0251641141263554e+00  1.0395297598606854e+00  1.0595074220523768e+00  1.0866728786683166e+00  1.1227549083020547e+00  1.1695190499041008e+00  1.2285981132708446e+00  1.3012781708927927e+00  1.3882625280601473e+00  1.4894496716280294e+00  1.6037699839631390e+00  1.7291254661677522e+00  1.8624639854472655e+00  2.0000000000000000e+00  2.0000000000000000e+00  1.8352430382910339e+00  1.6754936149804587e+00  1.5252854693469364e+00  1.3882693581308601e+00  1.2669580935822611e+00  1.1626372003455001e+00  1.0754358055024720e+00  1.0045204736804112e+00  9.4835948064467523e-01  9.0500424426846138e-01  8.7234495946110413e-01  8.4831347258493739e-01  8.3102279736531037e-01  8.1884575678550109e-01  8.1044343515182682e-01  8.0475756239087759e-01  8.0098076772837201e-01  7.9851629612520436e-01  7.9693558457412905e-01  7.9593896669853259e-01  7.9532221762565225e-01  7.9494983946166553e-01  7.9473488209916687e-01  7.9462455386310393e-01  7.9459073675180925e-01  7.9462463630402302e-01  7.9473505706867631e-01  7.9495012691990785e-01  7.9532264669456687e-01  7.9593957391410719e-01  7.9693641035599783e-01  7.9851737864364636e-01  8.0098213351300962e-01  8.0475921355524893e-01  8.1044533409889097e-01  8.1884781069110424e-01  8.3102484637217133e-01  8.4831528694784120e-01  8.7234625106604746e-01  9.0500469614997758e-01  9.4835879386921462e-01  1.0045184247081489e+00  1.0754323006841251e+00  1.1626323105278435e+00  1.2669520539788341e+00  1.3882625280601493e+00  1.5252782610599238e+00  1.6754864145609756e+00  1.8352361469588379e+00  2.0000000000000000e+00  2.0000000000000000e+00  1.8118505975374655e+00  1.6294059986239902e+00  1.4578296595818778e+00  1.3012837575367688e+00  1.1626372003455008e+00  1.0433630899023552e+00  9.4361806315811403e-01  8.6246149377454584e-01  7.9815518415640330e-01  7.4848314243917813e-01  7.1104259964908922e-01  6.8347546032080886e-01  6.6362792202359389e-01  6.4964088069464021e-01  6.3998311691752119e-01  6.3344324005151109e-01  6.2909622289025402e-01  6.2625774053190342e-01  6.2443591600866954e-01  6.2328652222443048e-01  6.2257477543349449e-01  6.2214478273555451e-01  6.2189643561667951e-01  6.2176891625731379e-01  6.2172981671653216e-01  6.2176899771274985e-01  6.2189660850766038e-01  6.2214506685188531e-01  6.2257519977206233e-01  6.2328712344853809e-01  6.2443673527239485e-01  6.2625881790025506e-01  6.2909758873064547e-01  6.3344490324782565e-01  6.3998505064956779e-01  6.4964300781510176e-01  6.6363010354263074e-01  6.8347749171157202e-01  7.1104421992375177e-01  7.4848405948019847e-01  7.9815511621315904e-01  8.6246022173432302e-01  9.4361548267013962e-01  1.0433592491261865e+00  1.1626323105278453e+00  1.3012781708927952e+00  1.4578238203845331e+00  1.6294003844179918e+00  1.8118456725198682e+00  2.0000000000000000e+00  2.0000000000000000e+00  1.7923197584902761e+00  1.5909202529343536e+00  1.4014856544379677e+00  1.2286022270941728e+00  1.0754358055024711e+00  9.4361806315811381e-01  8.3333228241137547e-01  7.4355287769822331e-01  6.7237380501652799e-01  6.1735968423285070e-01  5.7586596151754732e-01  5.4529410005139445e-01  5.2326808403246439e-01  5.0773487728313560e-01  4.9700184243688106e-01  4.8972858296262922e-01  4.8489058637218552e-01  4.8172922181671257e-01  4.7969870444966678e-01  4.7841674070091522e-01  4.7762235840340450e-01  4.7714213387779336e-01  4.7686461703561717e-01  4.7672205584063904e-01  4.7667832949082306e-01  4.7672213358038523e-01  4.7686478209187516e-01  4.7714240529562446e-01  4.7762276424481226e-01  4.7841731679708294e-01  4.7969949172986176e-01  4.8173026151584530e-01  4.8489191253489161e-01  4.8973021206232586e-01  4.9700376068703778e-01  5.0773702732257042e-01  5.2327035394586840e-01  5.4529631876005202e-01  5.7586790487628736e-01  6.1736109509438752e-01  6.7237442772871059e-01  7.4355250326090527e-01  8.3333079598488935e-01  9.4361548267013984e-01  1.0754323006841260e+00  1.2285981132708481e+00  1.4014813636420556e+00  1.5909162931290715e+00  1.7923166759769444e+00  2.0000000000000000e+00  2.0000000000000000e+00  1.7764572474948124e+00  1.5596573103908586e+00  1.3557027579480723e+00  1.1695216180506991e+00  1.0045204736804110e+00  8.6246149377454540e-01  7.4355287769822365e-01  6.4670412318782533e-01  5.6987699271077130e-01  5.1046148245138034e-01  4.6561928536922109e-01  4.3255814070190246e-01  4.0872212803110225e-01  3.9190049184184761e-01  3.8026874856397530e-01  3.7238068666612872e-01  3.6712985850547408e-01  3.6369619138403658e-01  3.6148915211545618e-01  3.6009472949433874e-01  3.5923005163498267e-01  3.5870698475482293e-01  3.5840453224572255e-01  3.5824908972704916e-01  3.5820139651590438e-01  3.5824916172740007e-01  3.5840468518398511e-01  3.5870723646281216e-01  3.5923042854979659e-01  3.6009526573136386e-01  3.6148988735825049e-01  3.6369716697712001e-01  3.6713111122085040e-01  3.7238223993383196e-01  3.8027060157304848e-01  3.9190260782484665e-01  4.0872442411107235e-01  4.3256048260905039e-01  4.6562149068095193e-01  5.1046333529684818e-01  5.6987827082216758e-01  6.4670463494954444e-01  7.4355250326090683e-01  8.6246022173432435e-01  1.0045184247081518e+00  1.1695190499041053e+00  1.3557000518114537e+00  1.5596549442919121e+00  1.7764557660773725e+00  2.0000000000000000e+00  2.0000000000000000e+00  1.7639128195915161e+00  1.5349289637524988e+00  1.3194780402149255e+00  1.1227560237866725e+00  9.4835948064467468e-01  7.9815518415640219e-01  6.7237380501652910e-01  5.6987699271077119e-01  4.8852552806785293e-01  4.2557441301467025e-01  3.7803443125601732e-01  3.4296153011073327e-01  3.1765807352053471e-01  2.9978844651729070e-01  2.8742328959593616e-01  2.7903183122088793e-01  2.7344185080385380e-01  2.6978373584652732e-01  2.6743071781558014e-01  2.6594299450804582e-01  2.6501981474953379e-01  2.6446098947044977e-01  2.6413767124355103e-01  2.6397142855683403e-01  2.6392040511115133e-01  2.6397149347047494e-01  2.6413780919727825e-01  2.6446121673218681e-01  2.6502015558964126e-01  2.6594348057740375e-01  2.6743138658120635e-01  2.6978462756014410e-01  2.7344300353513157e-01  2.7903327372963188e-01  2.8742503229723260e-01  2.9979047150995392e-01  3.1766032550635426e-01  3.4296391080847560e-01  3.7803680027487535e-01  4.2557659773147932e-01  4.8852734361549838e-01  5.6987827082216835e-01  6.7237442772871303e-01  7.9815511621316115e-01  9.4835879386921684e-01  1.1227549083020578e+00  1.3194768008243543e+00  1.5349280037279911e+00  1.7639126170243775e+00  2.0000000000000000e+00  2.0000000000000000e+00  1.7542433983840477e+00  1.5158639468311041e+00  1.2915402128844837e+00  1.0866727694511538e+00  9.0500424426846071e-01  7.4848314243917702e-01  6.1735968423285148e-01  5.1046148245138134e-01  4.2557441301467125e-01  3.5985200707258991e-01  3.1019068259384514e-01  2.7353060390394290e-01  2.4706541471625171e-01  2.2836319523840423e-01  2.1541327642797245e-01  2.0661899893492860e-01  2.0075664177352578e-01  1.9691761675803263e-01  1.9444651359176482e-01  1.9288305112833301e-01  1.9191221915412057e-01  1.9132417439073257e-01  1.9098375840562534e-01  1.9080864674263881e-01  1.9075488472161370e-01  1.9080870383527956e-01  1.9098387979845929e-01  1.9132437455943563e-01  1.9191251982636798e-01  1.9288348092325844e-01  1.9444710693822692e-01  1.9691841165544932e-01  2.0075767599191913e-01  2.0662030442654122e-01  2.1541487208217022e-01  2.2836507865792641e-01  2.4706755435967742e-01  2.7353293356738934e-01  3.1019310055017474e-01  3.5985438197680653e-01  4.2557659773148043e-01  5.1046333529684995e-01  6.1736109509439019e-01  7.4848405948020158e-01  9.0500469614998069e-01  1.0866728786683204e+00  1.2915401978121848e+00  1.5158641126610277e+00  1.7542441194752558e+00  2.0000000000000000e+00  2.0000000000000000e+00  1.7469710431880108e+00  1.5015219590472813e+00  1.2705161104642777e+00  1.0595063964246672e+00  8.7234495946110469e-01  7.1104259964909033e-01  5.7586596151754976e-01  4.6561928536922348e-01  3.7803443125601882e-01  3.1019068259384591e-01  2.5890003275153728e-01  2.2101658104915936e-01  1.9365266004248474e-01  1.7430391122546135e-01  1.6089816951667738e-01  1.5178867672527316e-01  1.4571234790566034e-01  1.4173065147826971e-01  1.3916606262243181e-01  1.3754241109341719e-01  1.3653357137144770e-01  1.3592214091231808e-01  1.3556799961923649e-01  1.3538575178197307e-01  1.3532978292780945e-01  1.3538580084388813e-01  1.3556810398421418e-01  1.3592231315361344e-01  1.3653383046783379e-01  1.3754278227265684e-01  1.3916657667373328e-01  1.4173134317995867e-01  1.4571325322958209e-01  1.5178982860086943e-01  1.6089959219715466e-01  1.7430561370153327e-01  1.9365462945179149e-01  2.2101877752123819e-01  2.5890238743643890e-01  3.1019310055017557e-01  3.7803680027487641e-01  4.6562149068095399e-01  5.7586790487629103e-01  7.1104421992375555e-01  8.7234625106605235e-01  1.0595074220523830e+00  1.2705170056586850e+00  1.5015229278115034e+00  1.7469723456283499e+00  2.0000000000000000e+00  2.0000000000000000e+00  1.7416286893801451e+00  1.4909837099134584e+00  1.2550623285066937e+00  1.0395281471210174e+00  8.4831347258493828e-01  6.8347546032081041e-01  5.4529410005139667e-01  4.3255814070190557e-01  3.4296153011073616e-01  2.7353060390394446e-01  2.2101658104916000e-01  1.8221115051573300e-01  1.5416730092156700e-01  1.3432748672497408e-01  1.2057412915950756e-01  1.1122326471971021e-01  1.0498241415261537e-01  1.0089056531394441e-01  9.8253502551796934e-02  9.6583001462501150e-02  9.5544461912010659e-02  9.4914690721929110e-02  9.4549750584454653e-02  9.4361874232598189e-02  9.4304161993392338e-02  9.4361915474776861e-02  9.4549838348806897e-02  9.4914835675133188e-02  9.5544680237046070e-02  9.6583314846642149e-02  9.8253937797937091e-02  1.0089115329493903e-01  1.0498318783152731e-01  1.1122425603866258e-01  1.2057536478059688e-01  1.3432898289478390e-01  1.5416905809846546e-01  1.8221314877220474e-01  2.2101877752123930e-01  2.7353293356739145e-01  3.4296391080847827e-01  4.3256048260905328e-01  5.4529631876005669e-01  6.8347749171157779e-01  8.4831528694784830e-01  1.0395297598606930e+00  1.2550638052948366e+00  1.4909851651789590e+00  1.7416302783505737e+00  2.0000000000000000e+00  2.0000000000000000e+00  1.7377913663277933e+00  1.4834124392747907e+00  1.2439553142663171e+00  1.0251622154165332e+00  8.3102279736531171e-01  6.6362792202359555e-01  5.2326808403246872e-01  4.0872212803110625e-01  3.1765807352053788e-01  2.4706541471625343e-01  1.9365266004248574e-01  1.5416730092156758e-01  1.2562001714674903e-01  1.0541510620687633e-01  9.1402213031342994e-02  8.1870364637269655e-02  7.5505620120485770e-02  7.1330460942255008e-02  6.8638348291680751e-02  6.6932109810462770e-02  6.5870821655573827e-02  6.5226948286212172e-02  6.4853676918170428e-02  6.4661446899848693e-02  6.4602383865985172e-02  6.4661480844751859e-02  6.4853749174675054e-02  6.5227067697785773e-02  6.5871001699317949e-02  6.6932368675975421e-02  6.8638708702269041e-02  7.1330949501068289e-02  7.5506265959893834e-02  8.1871197199384252e-02  9.1403258929069503e-02  1.0541638531462964e-01  1.2562153833132739e-01  1.5416905809846621e-01  1.9365462945179354e-01  2.4706755435968031e-01  3.1766032550635775e-01  4.0872442411107651e-01  5.2327035394587407e-01  6.6363010354263796e-01  8.3102484637217933e-01  1.0251641141263663e+00  1.2439570759341680e+00  1.4834141083386814e+00  1.7377930138499338e+00  2.0000000000000000e+00  2.0000000000000000e+00  1.7350935688991487e+00  1.4780882127042150e+00  1.2361417345212993e+00  1.0150509857324421e+00  8.1884575678550175e-01  6.4964088069464143e-01  5.0773487728313738e-01  3.9190049184184972e-01  2.9978844651729242e-01  2.2836319523840545e-01  1.7430391122546210e-01  1.3432748672497444e-01  1.0541510620687632e-01  8.4944294299717379e-02  7.0741555723740898e-02  6.1076733344924312e-02  5.4620552062685040e-02  5.0383630728920936e-02  4.7650523435192146e-02  4.5917553997447347e-02  4.4839177214300474e-02  4.4184667799777498e-02  4.3805090799486267e-02  4.3609556685045674e-02  4.3549466682397599e-02  4.3609584061090209e-02  4.3805149083866089e-02  4.4184764161387564e-02  4.4839322620379568e-02  4.5917763339906874e-02  4.7650815486844814e-02  5.0384027764222697e-02  5.4621078969466268e-02  6.1077416082295583e-02  7.0742419060117342e-02  8.4945358899412321e-02  1.0541638531463016e-01  1.3432898289478509e-01  1.7430561370153558e-01  2.2836507865792996e-01  2.9979047150995819e-01  3.9190260782485187e-01  5.0773702732257731e-01  6.4964300781510975e-01  8.1884781069111479e-01  1.0150529286861931e+00  1.2361435451967753e+00  1.4780898871724746e+00  1.7350951184960195e+00  2.0000000000000000e+00  2.0000000000000000e+00  1.7332352936188837e+00  1.4744199074731592e+00  1.2307562407868642e+00  1.0080783170024004e+00  8.1044343515182660e-01  6.3998311691752097e-01  4.9700184243688139e-01  3.8026874856397602e-01  2.8742328959593688e-01  2.1541327642797314e-01  1.6089816951667785e-01  1.2057412915950763e-01  9.1402213031342980e-02  7.0741555723740843e-02  5.6402666187972468e-02  4.6642043995217576e-02  4.0119683585073958e-02  3.5837852867365717e-02  3.3074798571519050e-02  3.1322212358202144e-02  3.0231239177968567e-02  2.9568857091923636e-02  2.9184595741878532e-02  2.8986600170656057e-02  2.8925743690403526e-02  2.8986621817704374e-02  2.9184641832112959e-02  2.9568933310365447e-02  3.0231354249870810e-02  3.1322378191128687e-02  3.3075030288926062e-02  3.5838168610139561e-02  4.0120103947931703e-02  4.6642590979975883e-02  5.6403361604874996e-02  7.0742419060117606e-02  9.1403258929070239e-02  1.2057536478059816e-01  1.6089959219715694e-01  2.1541487208217361e-01  2.8742503229723670e-01  3.8027060157305392e-01  4.9700376068704505e-01  6.3998505064957645e-01  8.1044533409890185e-01  1.0080801343449151e+00  1.2307579360921981e+00  1.4744214480182225e+00  1.7332366538358355e+00  2.0000000000000000e+00  2.0000000000000000e+00  1.7319799934038840e+00  1.4719412756481167e+00  1.2271159238073994e+00  1.0033627589973173e+00  8.0475756239087737e-01  6.3344324005151054e-01  4.8972858296262950e-01  3.7238068666612900e-01  2.7903183122088837e-01  2.0661899893492877e-01  1.5178867672527344e-01  1.1122326471971034e-01  8.1870364637269641e