<?xml version="1.0"?>
<VTKFile type="UnstructuredGrid"  version="0.1"  >
<UnstructuredGrid>
<Piece  NumberOfPoints="2601" NumberOfCells="5000">
<Points>
<DataArray  type="Float64"  NumberOfComponents="3"  format="ascii">0 0 0  0.02 0 0  0.04 0 0  0.06 0 0  0.08 0 0  0.1 0 0  0.12 0 0  0.14 0 0  0.16 0 0  0.18 0 0  0.2 0 0  0.22 0 0  0.24 0 0  0.26 0 0  0.28 0 0  0.3 0 0  0.32 0 0  0.34 0 0  0.36 0 0  0.38 0 0  0.4 0 0  0.42 0 0  0.44 0 0  0.46 0 0  0.48 0 0  0.5 0 0  0.52 0 0  0.54 0 0  0.5600000000000001 0 0  0.58 0 0  0.6 0 0  0.62 0 0  0.64 0 0  0.66 0 0  0.68 0 0  0.7 0 0  0.72 0 0  0.74 0 0  0.76 0 0  0.78 0 0  0.8 0 0  0.82 0 0  0.84 0 0  0.86 0 0  0.88 0 0  0.9 0 0  0.92 0 0  0.9399999999999999 0 0  0.96 0 0  0.98 0 0  1 0 0  0 0.02 0  0.02 0.02 0  0.04 0.02 0  0.06 0.02 0  0.08 0.02 0  0.1 0.02 0  0.12 0.02 0  0.14 0.02 0  0.16 0.02 0  0.18 0.02 0  0.2 0.02 0  0.22 0.02 0  0.24 0.02 0  0.26 0.02 0  0.28 0.02 0  0.3 0.02 0  0.32 0.02 0  0.34 0.02 0  0.36 0.02 0  0.38 0.02 0  0.4 0.02 0  0.42 0.02 0  0.44 0.02 0  0.46 0.02 0  0.48 0.02 0  0.5 0.02 0  0.52 0.02 0  0.54 0.02 0  0.5600000000000001 0.02 0  0.58 0.02 0  0.6 0.02 0  0.62 0.02 0  0.64 0.02 0  0.66 0.02 0  0.68 0.02 0  0.7 0.02 0  0.72 0.02 0  0.74 0.02 0  0.76 0.02 0  0.78 0.02 0  0.8 0.02 0  0.82 0.02 0  0.84 0.02 0  0.86 0.02 0  0.88 0.02 0  0.9 0.02 0  0.92 0.02 0  0.9399999999999999 0.02 0  0.96 0.02 0  0.98 0.02 0  1 0.02 0  0 0.04 0  0.02 0.04 0  0.04 0.04 0  0.06 0.04 0  0.08 0.04 0  0.1 0.04 0  0.12 0.04 0  0.14 0.04 0  0.16 0.04 0  0.18 0.04 0  0.2 0.04 0  0.22 0.04 0  0.24 0.04 0  0.26 0.04 0  0.28 0.04 0  0.3 0.04 0  0.32 0.04 0  0.34 0.04 0  0.36 0.04 0  0.38 0.04 0  0.4 0.04 0  0.42 0.04 0  0.44 0.04 0  0.46 0.04 0  0.48 0.04 0  0.5 0.04 0  0.52 0.04 0  0.54 0.04 0  0.5600000000000001 0.04 0  0.58 0.04 0  0.6 0.04 0  0.62 0.04 0  0.64 0.04 0  0.66 0.04 0  0.68 0.04 0  0.7 0.04 0  0.72 0.04 0  0.74 0.04 0  0.76 0.04 0  0.78 0.04 0  0.8 0.04 0  0.82 0.04 0  0.84 0.04 0  0.86 0.04 0  0.88 0.04 0  0.9 0.04 0  0.92 0.04 0  0.9399999999999999 0.04 0  0.96 0.04 0  0.98 0.04 0  1 0.04 0  0 0.06 0  0.02 0.06 0  0.04 0.06 0  0.06 0.06 0  0.08 0.06 0  0.1 0.06 0  0.12 0.06 0  0.14 0.06 0  0.16 0.06 0  0.18 0.06 0  0.2 0.06 0  0.22 0.06 0  0.24 0.06 0  0.26 0.06 0  0.28 0.06 0  0.3 0.06 0  0.32 0.06 0  0.34 0.06 0  0.36 0.06 0  0.38 0.06 0  0.4 0.06 0  0.42 0.06 0  0.44 0.06 0  0.46 0.06 0  0.48 0.06 0  0.5 0.06 0  0.52 0.06 0  0.54 0.06 0  0.5600000000000001 0.06 0  0.58 0.06 0  0.6 0.06 0  0.62 0.06 0  0.64 0.06 0  0.66 0.06 0  0.68 0.06 0  0.7 0.06 0  0.72 0.06 0  0.74 0.06 0  0.76 0.06 0  0.78 0.06 0  0.8 0.06 0  0.82 0.06 0  0.84 0.06 0  0.86 0.06 0  0.88 0.06 0  0.9 0.06 0  0.92 0.06 0  0.9399999999999999 0.06 0  0.96 0.06 0  0.98 0.06 0  1 0.06 0  0 0.08 0  0.02 0.08 0  0.04 0.08 0  0.06 0.08 0  0.08 0.08 0  0.1 0.08 0  0.12 0.08 0  0.14 0.08 0  0.16 0.08 0  0.18 0.08 0  0.2 0.08 0  0.22 0.08 0  0.24 0.08 0  0.26 0.08 0  0.28 0.08 0  0.3 0.08 0  0.32 0.08 0  0.34 0.08 0  0.36 0.08 0  0.38 0.08 0  0.4 0.08 0  0.42 0.08 0  0.44 0.08 0  0.46 0.08 0  0.48 0.08 0  0.5 0.08 0  0.52 0.08 0  0.54 0.08 0  0.5600000000000001 0.08 0  0.58 0.08 0  0.6 0.08 0  0.62 0.08 0  0.64 0.08 0  0.66 0.08 0  0.68 0.08 0  0.7 0.08 0  0.72 0.08 0  0.74 0.08 0  0.76 0.08 0  0.78 0.08 0  0.8 0.08 0  0.82 0.08 0  0.84 0.08 0  0.86 0.08 0  0.88 0.08 0  0.9 0.08 0  0.92 0.08 0  0.9399999999999999 0.08 0  0.96 0.08 0  0.98 0.08 0  1 0.08 0  0 0.1 0  0.02 0.1 0  0.04 0.1 0  0.06 0.1 0  0.08 0.1 0  0.1 0.1 0  0.12 0.1 0  0.14 0.1 0  0.16 0.1 0  0.18 0.1 0  0.2 0.1 0  0.22 0.1 0  0.24 0.1 0  0.26 0.1 0  0.28 0.1 0  0.3 0.1 0  0.32 0.1 0  0.34 0.1 0  0.36 0.1 0  0.38 0.1 0  0.4 0.1 0  0.42 0.1 0  0.44 0.1 0  0.46 0.1 0  0.48 0.1 0  0.5 0.1 0  0.52 0.1 0  0.54 0.1 0  0.5600000000000001 0.1 0  0.58 0.1 0  0.6 0.1 0  0.62 0.1 0  0.64 0.1 0  0.66 0.1 0  0.68 0.1 0  0.7 0.1 0  0.72 0.1 0  0.74 0.1 0  0.76 0.1 0  0.78 0.1 0  0.8 0.1 0  0.82 0.1 0  0.84 0.1 0  0.86 0.1 0  0.88 0.1 0  0.9 0.1 0  0.92 0.1 0  0.9399999999999999 0.1 0  0.96 0.1 0  0.98 0.1 0  1 0.1 0  0 0.12 0  0.02 0.12 0  0.04 0.12 0  0.06 0.12 0  0.08 0.12 0  0.1 0.12 0  0.12 0.12 0  0.14 0.12 0  0.16 0.12 0  0.18 0.12 0  0.2 0.12 0  0.22 0.12 0  0.24 0.12 0  0.26 0.12 0  0.28 0.12 0  0.3 0.12 0  0.32 0.12 0  0.34 0.12 0  0.36 0.12 0  0.38 0.12 0  0.4 0.12 0  0.42 0.12 0  0.44 0.12 0  0.46 0.12 0  0.48 0.12 0  0.5 0.12 0  0.52 0.12 0  0.54 0.12 0  0.5600000000000001 0.12 0  0.58 0.12 0  0.6 0.12 0  0.62 0.12 0  0.64 0.12 0  0.66 0.12 0  0.68 0.12 0  0.7 0.12 0  0.72 0.12 0  0.74 0.12 0  0.76 0.12 0  0.78 0.12 0  0.8 0.12 0  0.82 0.12 0  0.84 0.12 0  0.86 0.12 0  0.88 0.12 0  0.9 0.12 0  0.92 0.12 0  0.9399999999999999 0.12 0  0.96 0.12 0  0.98 0.12 0  1 0.12 0  0 0.14 0  0.02 0.14 0  0.04 0.14 0  0.06 0.14 0  0.08 0.14 0  0.1 0.14 0  0.12 0.14 0  0.14 0.14 0  0.16 0.14 0  0.18 0.14 0  0.2 0.14 0  0.22 0.14 0  0.24 0.14 0  0.26 0.14 0  0.28 0.14 0  0.3 0.14 0  0.32 0.14 0  0.34 0.14 0  0.36 0.14 0  0.38 0.14 0  0.4 0.14 0  0.42 0.14 0  0.44 0.14 0  0.46 0.14 0  0.48 0.14 0  0.5 0.14 0  0.52 0.14 0  0.54 0.14 0  0.5600000000000001 0.14 0  0.58 0.14 0  0.6 0.14 0  0.62 0.14 0  0.64 0.14 0  0.66 0.14 0  0.68 0.14 0  0.7 0.14 0  0.72 0.14 0  0.74 0.14 0  0.76 0.14 0  0.78 0.14 0  0.8 0.14 0  0.82 0.14 0  0.84 0.14 0  0.86 0.14 0  0.88 0.14 0  0.9 0.14 0  0.92 0.14 0  0.9399999999999999 0.14 0  0.96 0.14 0  0.98 0.14 0  1 0.14 0  0 0.16 0  0.02 0.16 0  0.04 0.16 0  0.06 0.16 0  0.08 0.16 0  0.1 0.16 0  0.12 0.16 0  0.14 0.16 0  0.16 0.16 0  0.18 0.16 0  0.2 0.16 0  0.22 0.16 0  0.24 0.16 0  0.26 0.16 0  0.28 0.16 0  0.3 0.16 0  0.32 0.16 0  0.34 0.16 0  0.36 0.16 0  0.38 0.16 0  0.4 0.16 0  0.42 0.16 0  0.44 0.16 0  0.46 0.16 0  0.48 0.16 0  0.5 0.16 0  0.52 0.16 0  0.54 0.16 0  0.5600000000000001 0.16 0  0.58 0.16 0  0.6 0.16 0  0.62 0.16 0  0.64 0.16 0  0.66 0.16 0  0.68 0.16 0  0.7 0.16 0  0.72 0.16 0  0.74 0.16 0  0.76 0.16 0  0.78 0.16 0  0.8 0.16 0  0.82 0.16 0  0.84 0.16 0  0.86 0.16 0  0.88 0.16 0  0.9 0.16 0  0.92 0.16 0  0.9399999999999999 0.16 0  0.96 0.16 0  0.98 0.16 0  1 0.16 0  0 0.18 0  0.02 0.18 0  0.04 0.18 0  0.06 0.18 0  0.08 0.18 0  0.1 0.18 0  0.12 0.18 0  0.14 0.18 0  0.16 0.18 0  0.18 0.18 0  0.2 0.18 0  0.22 0.18 0  0.24 0.18 0  0.26 0.18 0  0.28 0.18 0  0.3 0.18 0  0.32 0.18 0  0.34 0.18 0  0.36 0.18 0  0.38 0.18 0  0.4 0.18 0  0.42 0.18 0  0.44 0.18 0  0.46 0.18 0  0.48 0.18 0  0.5 0.18 0  0.52 0.18 0  0.54 0.18 0  0.5600000000000001 0.18 0  0.58 0.18 0  0.6 0.18 0  0.62 0.18 0  0.64 0.18 0  0.66 0.18 0  0.68 0.18 0  0.7 0.18 0  0.72 0.18 0  0.74 0.18 0  0.76 0.18 0  0.78 0.18 0  0.8 0.18 0  0.82 0.18 0  0.84 0.18 0  0.86 0.18 0  0.88 0.18 0  0.9 0.18 0  0.92 0.18 0  0.9399999999999999 0.18 0  0.96 0.18 0  0.98 0.18 0  1 0.18 0  0 0.2 0  0.02 0.2 0  0.04 0.2 0  0.06 0.2 0  0.08 0.2 0  0.1 0.2 0  0.12 0.2 0  0.14 0.2 0  0.16 0.2 0  0.18 0.2 0  0.2 0.2 0  0.22 0.2 0  0.24 0.2 0  0.26 0.2 0  0.28 0.2 0  0.3 0.2 0  0.32 0.2 0  0.34 0.2 0  0.36 0.2 0  0.38 0.2 0  0.4 0.2 0  0.42 0.2 0  0.44 0.2 0  0.46 0.2 0  0.48 0.2 0  0.5 0.2 0  0.52 0.2 0  0.54 0.2 0  0.5600000000000001 0.2 0  0.58 0.2 0  0.6 0.2 0  0.62 0.2 0  0.64 0.2 0  0.66 0.2 0  0.68 0.2 0  0.7 0.2 0  0.72 0.2 0  0.74 0.2 0  0.76 0.2 0  0.78 0.2 0  0.8 0.2 0  0.82 0.2 0  0.84 0.2 0  0.86 0.2 0  0.88 0.2 0  0.9 0.2 0  0.92 0.2 0  0.9399999999999999 0.2 0  0.96 0.2 0  0.98 0.2 0  1 0.2 0  0 0.22 0  0.02 0.22 0  0.04 0.22 0  0.06 0.22 0  0.08 0.22 0  0.1 0.22 0  0.12 0.22 0  0.14 0.22 0  0.16 0.22 0  0.18 0.22 0  0.2 0.22 0  0.22 0.22 0  0.24 0.22 0  0.26 0.22 0  0.28 0.22 0  0.3 0.22 0  0.32 0.22 0  0.34 0.22 0  0.36 0.22 0  0.38 0.22 0  0.4 0.22 0  0.42 0.22 0  0.44 0.22 0  0.46 0.22 0  0.48 0.22 0  0.5 0.22 0  0.52 0.22 0  0.54 0.22 0  0.5600000000000001 0.22 0  0.58 0.22 0  0.6 0.22 0  0.62 0.22 0  0.64 0.22 0  0.66 0.22 0  0.68 0.22 0  0.7 0.22 0  0.72 0.22 0  0.74 0.22 0  0.76 0.22 0  0.78 0.22 0  0.8 0.22 0  0.82 0.22 0  0.84 0.22 0  0.86 0.22 0  0.88 0.22 0  0.9 0.22 0  0.92 0.22 0  0.9399999999999999 0.22 0  0.96 0.22 0  0.98 0.22 0  1 0.22 0  0 0.24 0  0.02 0.24 0  0.04 0.24 0  0.06 0.24 0  0.08 0.24 0  0.1 0.24 0  0.12 0.24 0  0.14 0.24 0  0.16 0.24 0  0.18 0.24 0  0.2 0.24 0  0.22 0.24 0  0.24 0.24 0  0.26 0.24 0  0.28 0.24 0  0.3 0.24 0  0.32 0.24 0  0.34 0.24 0  0.36 0.24 0  0.38 0.24 0  0.4 0.24 0  0.42 0.24 0  0.44 0.24 0  0.46 0.24 0  0.48 0.24 0  0.5 0.24 0  0.52 0.24 0  0.54 0.24 0  0.5600000000000001 0.24 0  0.58 0.24 0  0.6 0.24 0  0.62 0.24 0  0.64 0.24 0  0.66 0.24 0  0.68 0.24 0  0.7 0.24 0  0.72 0.24 0  0.74 0.24 0  0.76 0.24 0  0.78 0.24 0  0.8 0.24 0  0.82 0.24 0  0.84 0.24 0  0.86 0.24 0  0.88 0.24 0  0.9 0.24 0  0.92 0.24 0  0.9399999999999999 0.24 0  0.96 0.24 0  0.98 0.24 0  1 0.24 0  0 0.26 0  0.02 0.26 0  0.04 0.26 0  0.06 0.26 0  0.08 0.26 0  0.1 0.26 0  0.12 0.26 0  0.14 0.26 0  0.16 0.26 0  0.18 0.26 0  0.2 0.26 0  0.22 0.26 0  0.24 0.26 0  0.26 0.26 0  0.28 0.26 0  0.3 0.26 0  0.32 0.26 0  0.34 0.26 0  0.36 0.26 0  0.38 0.26 0  0.4 0.26 0  0.42 0.26 0  0.44 0.26 0  0.46 0.26 0  0.48 0.26 0  0.5 0.26 0  0.52 0.26 0  0.54 0.26 0  0.5600000000000001 0.26 0  0.58 0.26 0  0.6 0.26 0  0.62 0.26 0  0.64 0.26 0  0.66 0.26 0  0.68 0.26 0  0.7 0.26 0  0.72 0.26 0  0.74 0.26 0  0.76 0.26 0  0.78 0.26 0  0.8 0.26 0  0.82 0.26 0  0.84 0.26 0  0.86 0.26 0  0.88 0.26 0  0.9 0.26 0  0.92 0.26 0  0.9399999999999999 0.26 0  0.96 0.26 0  0.98 0.26 0  1 0.26 0  0 0.28 0  0.02 0.28 0  0.04 0.28 0  0.06 0.28 0  0.08 0.28 0  0.1 0.28 0  0.12 0.28 0  0.14 0.28 0  0.16 0.28 0  0.18 0.28 0  0.2 0.28 0  0.22 0.28 0  0.24 0.28 0  0.26 0.28 0  0.28 0.28 0  0.3 0.28 0  0.32 0.28 0  0.34 0.28 0  0.36 0.28 0  0.38 0.28 0  0.4 0.28 0  0.42 0.28 0  0.44 0.28 0  0.46 0.28 0  0.48 0.28 0  0.5 0.28 0  0.52 0.28 0  0.54 0.28 0  0.5600000000000001 0.28 0  0.58 0.28 0  0.6 0.28 0  0.62 0.28 0  0.64 0.28 0  0.66 0.28 0  0.68 0.28 0  0.7 0.28 0  0.72 0.28 0  0.74 0.28 0  0.76 0.28 0  0.78 0.28 0  0.8 0.28 0  0.82 0.28 0  0.84 0.28 0  0.86 0.28
[...]
<PointData  Scalars="f_12"> 
<DataArray  type="Float64"  Name="f_12"  format="ascii">2.0000000000000000e+00  2.0000000000000000e+00  2.0000000000000000e+00  2.0000000000000000e+00  2.0000000000000000e+00  2.0000000000000000e+00  2.0000000000000000e+00  2.0000000000000000e+00  2.0000000000000000e+00  2.0000000000000000e+00  2.0000000000000000e+00  2.0000000000000000e+00  2.0000000000000000e+00  2.0000000000000000e+00  2.0000000000000000e+00  2.0000000000000000e+00  2.0000000000000000e+00  2.0000000000000000e+00  2.0000000000000000e+00  2.0000000000000000e+00  2.0000000000000000e+00  2.0000000000000000e+00  2.0000000000000000e+00  2.0000000000000000e+00  2.0000000000000000e+00  2.0000000000000000e+00  2.0000000000000000e+00  2.0000000000000000e+00  2.0000000000000000e+00  2.0000000000000000e+00  2.0000000000000000e+00  2.0000000000000000e+00  2.0000000000000000e+00  2.0000000000000000e+00  2.0000000000000000e+00  2.0000000000000000e+00  2.0000000000000000e+00  2.0000000000000000e+00  2.0000000000000000e+00  2.0000000000000000e+00  2.0000000000000000e+00  2.0000000000000000e+00  2.0000000000000000e+00  2.0000000000000000e+00  2.0000000000000000e+00  2.0000000000000000e+00  2.0000000000000000e+00  2.0000000000000000e+00  2.0000000000000000e+00  2.0000000000000000e+00  2.0000000000000000e+00  2.0000000000000000e+00  1.9307407171051654e+00  1.8655946604529028e+00  1.8079201161760063e+00  1.7597061941968861e+00  1.7215096206500331e+00  1.6927151923126282e+00  1.6719735627313803e+00  1.6576386191234229e+00  1.6480968786724020e+00  1.6419584041884541e+00  1.6381295265235345e+00  1.6358073524993952e+00  1.6344344786109364e+00  1.6336415066472394e+00  1.6331931267768247e+00  1.6329444881173603e+00  1.6328090586872561e+00  1.6327365000230285e+00  1.6326982149897280e+00  1.6326783012762194e+00  1.6326680871845374e+00  1.6326629313389569e+00  1.6326603999453861e+00  1.6326592580980326e+00  1.6326589342830098e+00  1.6326592638882917e+00  1.6326604138206271e+00  1.6326629586142980e+00  1.6326681377854797e+00  1.6326783924545378e+00  1.6326983754963960e+00  1.6327367760003830e+00  1.6328095211753768e+00  1.6329452411525942e+00  1.6331943132776532e+00  1.6336433063888967e+00  1.6344370887432409e+00  1.6358109374206091e+00  1.6381341234116071e+00  1.6419637782204271e+00  1.6481023440726699e+00  1.6576428812612067e+00  1.6719746824804649e+00  1.6927107938083459e+00  1.7214974027259484e+00  1.7596846208485821e+00  1.8078888866794101e+00  1.8655543107807182e+00  1.9306902477781280e+00  2.0000000000000000e+00  2.0000000000000000e+00  1.8655946604529041e+00  1.7391748729393084e+00  1.6272008230832102e+00  1.5335343217975081e+00  1.4592713833544864e+00  1.4032400265823859e+00  1.3628416887858916e+00  1.3348953577561420e+00  1.3162759711211569e+00  1.3042864657520232e+00  1.2968012398585409e+00  1.2922575624515609e+00  1.2895690769736332e+00  1.2880149611343534e+00  1.2871355254252475e+00  1.2866474992058752e+00  1.2863814949777430e+00  1.2862388847111754e+00  1.2861635903903170e+00  1.2861244032693229e+00  1.2861042921891330e+00  1.2860941351521500e+00  1.2860891457515129e+00  1.2860868938956787e+00  1.2860862542481482e+00  1.2860869022016852e+00  1.2860891655530025e+00  1.2860941737851230e+00  1.2861043632081446e+00  1.2861245299175772e+00  1.2861638107811906e+00  1.2862392588477201e+00  1.2863821131235844e+00  1.2866484897845520e+00  1.2871370582550601e+00  1.2880172383087525e+00  1.2895722996753611e+00  1.2922618594789352e+00  1.2968065468407872e+00  1.3042923591341977e+00  1.3162814934862497e+00  1.3348989184991868e+00  1.3628411649308125e+00  1.4032331739621959e+00  1.4592565376295066e+00  1.5335111094807747e+00  1.6271703470806878e+00  1.7391389075192842e+00  1.8655543107807169e+00  2.0000000000000000e+00  2.0000000000000000e+00  1.8079201161760063e+00  1.6272008230832098e+00  1.4670191604517371e+00  1.3328963723379670e+00  1.2264330685271232e+00  1.1460014777742265e+00  1.0879303046725957e+00  1.0477013980703951e+00  1.0208605840578302e+00  1.0035528980900408e+00  9.9273273278269125e-01  9.8615604430739912e-01  9.8225971773731136e-01  9.8000467494749000e-01  9.7872713413436896e-01  9.7801741104864337e-01  9.7763016602014674e-01  9.7742235099513219e-01  9.7731252745295394e-01  9.7725531867850635e-01  9.7722593407969549e-01  9.7721108178294980e-01  9.7720378066979252e-01  9.7720048330004194e-01  9.7719954567266631e-01  9.7720049309932400e-01  9.7720380396519702e-01  9.7721112704763979e-01  9.7722601688796207e-01  9.7725546556645482e-01  9.7731278161634194e-01  9.7742277988615478e-01  9.7763087019178885e-01  9.7801853210750633e-01  9.7872885711948143e-01  9.8000721685774395e-01  9.8226329008657232e-01  9.8616077582533279e-01  9.9273854315218168e-01  1.0035593309793593e+00  1.0208666420726171e+00  1.0477054688420520e+00  1.0879303017506923e+00  1.1459952939732134e+00  1.2264193011707762e+00  1.3328750372103191e+00  1.4669919141908421e+00  1.6271703470806869e+00  1.8078888866794101e+00  2.0000000000000000e+00  2.0000000000000000e+00  1.7597061941968848e+00  1.5335343217975050e+00  1.3328963723379668e+00  1.1647015536603251e+00  1.0310023832381798e+00  9.2983290812332298e-01  8.5666449592945393e-01  8.0588783648883855e-01  7.7194959487454129e-01  7.5002697510040528e-01  7.3629824826561374e-01  7.2793983513803118e-01  7.2298001678433121e-01  7.2010506373262029e-01  7.1847393900542622e-01  7.1756651850466957e-01  7.1707074406684579e-01  7.1680434908473234e-01  7.1666339797627820e-01  7.1658989016443631e-01  7.1655209276312526e-01  7.1653296882729456e-01  7.1652355915800903e-01  7.1651930610831149e-01  7.1651809556046353e-01  7.1651931651722311e-01  7.1652358384847792e-01  7.1653301665407521e-01  7.1655217994583054e-01  7.1659004422845274e-01  7.1666366354180067e-01  7.1680479555012733e-01  7.1707147452780529e-01  7.1756767780951047e-01  7.1847571643194619e-01  7.2010768244156231e-01  7.2298369878604241e-01  7.2794472922850262e-01  7.3630431329647139e-01  7.5003382725930667e-01  7.7195635863430356e-01  8.0589307932753329e-01  8.5666635505856237e-01  9.2982949342483379e-01  1.0309924262158872e+00  1.1646850812994902e+00  1.3328750372103204e+00  1.5335111094807761e+00  1.7596846208485810e+00  2.0000000000000000e+00  2.0000000000000000e+00  1.7215096206500329e+00  1.4592713833544855e+00  1.2264330685271239e+00  1.0310023832381798e+00  8.7541712101565727e-01  7.5748401477265181e-01  6.7203382992687244e-01  6.1261990019913803e-01  5.7283114282312353e-01  5.4707932574359941e-01  5.3092171756485951e-01  5.2106614750826286e-01  5.1520733316234424e-01  5.1180534517989251e-01  5.0987196321494632e-01  5.0879466148925845e-01  5.0820516525304305e-01  5.0788794461746456e-01  5.0771986564336813e-01  5.0763209296786693e-01  5.0758690327914990e-01  5.0756401188700495e-01  5.0755273630108688e-01  5.0754763520750190e-01  5.0754618191505996e-01  5.0754764551181697e-01  5.0755276069426614e-01  5.0756405900504453e-01  5.0758698889704379e-01  5.0763224377542460e-01  5.0772012478423501e-01  5.0788837904859485e-01  5.0820587435406273e-01  5.0879578507985612e-01  5.0987368503510355e-01  5.1180788503343666e-01  5.1521091806288921e-01  5.2107095119784108e-01  5.3092776202684833e-01  5.4708635189696908e-01  5.7283848273534865e-01  6.1262641532518525e-01  6.7203800206892972e-01  7.5748425931948404e-01  8.7541230950200843e-01  1.0309924262158885e+00  1.2264193011707778e+00  1.4592565376295086e+00  1.7214974027259478e+00  2.0000000000000000e+00  2.0000000000000000e+00  1.6927151923126285e+00  1.4032400265823861e+00  1.1460014777742282e+00  9.2983290812332320e-01  7.5748401477265204e-01  6.2662381725992422e-01  5.3163331954609216e-01  4.6545885927017261e-01  4.2105529645268563e-01  3.9225970660279214e-01  3.7415673280342210e-01  3.6309316353567256e-01  3.5650379094077050e-01  3.5267056679718922e-01  3.5048823860950462e-01  3.4927013794329947e-01  3.4860249825942280e-01  3.4824265813840050e-01  3.4805170776268035e-01  3.4795184644095017e-01  3.4790036169303129e-01  3.4787424745725681e-01  3.4786136916329968e-01  3.4785553721333745e-01  3.4785387416748864e-01  3.4785554688180209e-01  3.4786139200513683e-01  3.4787429145527488e-01  3.4790044139172782e-01  3.4795198638223551e-01  3.4805194752702168e-01  3.4824305906756814e-01  3.4860315141891657e-01  3.4927117183782358e-01  3.5048982345177415e-01  3.5267290983165761e-01  3.5650711504905391e-01  3.6309766059210596e-01  3.7416248653580980e-01  3.9226659003623177e-01  4.2106286786902664e-01  4.6546630447961346e-01  5.3163950503127722e-01  6.2662750844461224e-01  7.5748425931948560e-01  9.2982949342483545e-01  1.1459952939732159e+00  1.4032331739621979e+00  1.6927107938083472e+00  2.0000000000000000e+00  2.0000000000000000e+00  1.6719735627313803e+00  1.3628416887858925e+00  1.0879303046725974e+00  8.5666449592945348e-01  6.7203382992687133e-01  5.3163331954609183e-01  4.2954576102416719e-01  3.5829990557078295e-01  3.1040479666231074e-01  2.7928641281460631e-01  2.5968617994334969e-01  2.4768508264665104e-01  2.4052410990593037e-01  2.3635082769624147e-01  2.3397070509619344e-01  2.3263992533662384e-01  2.3190931540502613e-01  2.3151490409886599e-01  2.3130528440083642e-01  2.3119549624560953e-01  2.3113881282161844e-01  2.3111002292823843e-01  2.3109580769433352e-01  2.3108936370963068e-01  2.3108752449407893e-01  2.3108937239022606e-01  2.3109582815923130e-01  2.3111006223296190e-01  2.3113888378801442e-01  2.3119562045123232e-01  2.3130549656840288e-01  2.3151525797649913e-01  2.3190989082541763e-01  2.3264083533208899e-01  2.3397210062512341e-01  2.3635289577717641e-01  2.4052705922291995e-01  2.4768911008098737e-01  2.5969141380555039e-01  2.7929283585593195e-01  3.1041216517887926e-01  3.5830769758875131e-01  4.2955319862456548e-01  5.3163950503127755e-01  6.7203800206893050e-01  8.5666635505856437e-01  1.0879303017506936e+00  1.3628411649308145e+00  1.6719746824804640e+00  2.0000000000000000e+00  2.0000000000000000e+00  1.6576386191234225e+00  1.3348953577561424e+00  1.0477013980703949e+00  8.0588783648883755e-01  6.1261990019913803e-01  4.6545885927017167e-01  3.5829990557078306e-01  2.8339789096751261e-01  2.3296246372725107e-01  2.0013838478942936e-01  1.7942847652979413e-01  1.6672619099433530e-01  1.5913389327809332e-01  1.5470178066383702e-01  1.5216984837869313e-01  1.5075188866488401e-01  1.4997218152489630e-01  1.4955061565735209e-01  1.4932622789645111e-01  1.4920853421424826e-01  1.4914768412164731e-01  1.4911673686014723e-01  1.4910143784584148e-01  1.4909449554271248e-01  1.4909251242585850e-01  1.4909450304455402e-01  1.4910145549232248e-01  1.4911677064690265e-01  1.4914774491465621e-01  1.4920864024774730e-01  1.4932640844299769e-01  1.4955091596537209e-01  1.4997266882095245e-01  1.5075265841654020e-01  1.5217102903879301e-01  1.5470353382551180e-01  1.5913640489507044e-01  1.6672964882589206e-01  1.7943303047328124e-01  2.0014409161481977e-01  2.3296922650075119e-01  2.8340541450997708e-01  3.5830769758875208e-01  4.6546630447961407e-01  6.1262641532518691e-01  8.0589307932753540e-01  1.0477054688420542e+00  1.3348989184991913e+00  1.6576428812612083e+00  2.0000000000000000e+00  2.0000000000000000e+00  1.6480968786724028e+00  1.3162759711211556e+00  1.0208605840578289e+00  7.7194959487454018e-01  5.7283114282312297e-01  4.2105529645268452e-01  3.1040479666231069e-01  2.3296246372725113e-01  1.8074513274612813e-01  1.4671293007177008e-01  1.2520935785262932e-01  1.1200069665131979e-01  1.0409393598735291e-01  9.9471361235854969e-02  9.6826708137306747e-02  9.5343449976560204e-02  9.4526658763093158e-02  9.4084416406987267e-02  9.3848696351624863e-02  9.3724891286571854e-02  9.3660797385085384e-02  9.3628159464643201e-02  9.3612006070969617e-02  9.3604669027920306e-02  9.3602571521528385e-02  9.3604675293261011e-02  9.3612020773744628e-02  9.3628187521911294e-02  9.3660847681703768e-02  9.3724978685656699e-02  9.3848844648683705e-02  9.4084662317528905e-02  9.4527056821103878e-02  9.5344077791784693e-02  9.6827670765441284e-02  9.9472792499101570e-02  1.0409599367017044e-01  1.1200354809306855e-01  1.2521315335325772e-01  1.4671776456774888e-01  1.8075100174482106e-01  2.3296922650075150e-01  3.1041216517888032e-01  4.2106286786902752e-01  5.7283848273535010e-01  7.7195635863430589e-01  1.0208666420726196e+00  1.3162814934862535e+00  1.6481023440726725e+00  2.0000000000000000e+00  2.0000000000000000e+00  1.6419584041884543e+00  1.3042864657520232e+00  1.0035528980900430e+00  7.5002697510040495e-01  5.4707932574359763e-01  3.9225970660279158e-01  2.7928641281460626e-01  2.0013838478942939e-01  1.4671293007177033e-01  1.1185342157985594e-01  8.9800857576987705e-02  7.6238386401792840e-02  6.8109710776555601e-02  6.3351409150156510e-02  6.0625660211514235e-02  5.9094987069154163e-02  5.8251025914819426e-02  5.7793503322969612e-02  5.7549338609939042e-02  5.7420942960480677e-02  5.7354393857161866e-02  5.7320467126388074e-02  5.7303658229377191e-02  5.7296016747374036e-02  5.7293830689256586e-02  5.7296021818733965e-02  5.7303670100008933e-02  5.7320489698641348e-02  5.7354434159519602e-02  5.7421012709621425e-02  5.7549456504415585e-02  5.7793698145515070e-02  5.8251340373324210e-02  5.9095482008740291e-02  6.0626418350677086e-02  6.3352536860853487e-02  6.8111335789054858e-02  7.6240648991698620e-02  8.9803893275098995e-02  1.1185733525366168e-01  1.4671776456774904e-01  2.0014409161482016e-01  2.7929283585593284e-01  3.9226659003623315e-01  5.4708635189697141e-01  7.5003382725931078e-01  1.0035593309793633e+00  1.3042923591342011e+00  1.6419637782204282e+00  2.0000000000000000e+00  2.0000000000000000e+00  1.6381295265235332e+00  1.2968012398585429e+00  9.9273273278269314e-01  7.3629824826561463e-01  5.3092171756485940e-01  3.7415673280342204e-01  2.5968617994335041e-01  1.7942847652979477e-01  1.2520935785262974e-01  8.9800857576987886e-02  6.7380235056991339e-02  5.3578104980679234e-02  4.5297563869468677e-02  4.0445434997806243e-02  3.7663066387040679e-02  3.6098967161500579e-02  3.5235671136351968e-02  3.4767175246374980e-02  3.4516892550007151e-02  3.4385142850676148e-02  3.4316785314767805e-02  3.4281902032778706e-02  3.4264603278304925e-02  3.4256733022009558e-02  3.4254480157474856e-02  3.4256737009077193e-02  3.4264612585700925e-02  3.4281919663911302e-02  3.4316816659894556e-02  3.4385196860618493e-02  3.4516983456818515e-02  3.4767324891757830e-02  3.5235911869124233e-02  3.6099345063990727e-02  3.7663644266794277e-02  4.0446294153495876e-02  4.5298803201029907e-02  5.3579835761486484e-02  6.7382569917545487e-02  8.9803893275099259e-02  1.2521315335325797e-01  1.7943303047328182e-01  2.5969141380555177e-01  3.7416248653581147e-01  5.3092776202685132e-01  7.3630431329647583e-01  9.9273854315218668e-01  1.2968065468407923e+00  1.6381341234116089e+00  2.0000000000000000e+00  2.0000000000000000e+00  1.6358073524993957e+00  1.2922575624515620e+00  9.8615604430740034e-01  7.2793983513803207e-01  5.2106614750826374e-01  3.6309316353567300e-01  2.4768508264665154e-01  1.6672619099433617e-01  1.1200069665132058e-01  7.6238386401793257e-02  5.3578104980679400e-02  3.9618289695206164e-02  3.1236781687360621e-02  2.6321624478445691e-02  2.3500832427832657e-02  2.1913821944772646e-02  2.1037143489973452e-02  2.0560980266170301e-02  2.0306383350503450e-02  2.0172247422289555e-02  2.0102592307531905e-02  2.0067017171175476e-02  2.0049361548781543e-02  2.0041323651093245e-02  2.0039021629353643e-02  2.0041326701020712e-02  2.0049368648192786e-02  2.0067030565598006e-02  2.0102616011553220e-02  2.0172288073752900e-02  2.0306451459525678e-02  2.0561091903492725e-02  2.1037322392835730e-02  2.1914101884754442e-02  2.3501259471160552e-02  2.6322258486261269e-02  3.1237696107826275e-02  3.9619568509984583e-02  5.3579835761486727e-02  7.6240648991699120e-02  1.1200354809306919e-01  1.6672964882589283e-01  2.4768911008098909e-01  3.6309766059210885e-01  5.2107095119784530e-01  7.2794472922850784e-01  9.8616077582533979e-01  1.2922618594789435e+00  1.6358109374206129e+00  2.0000000000000000e+00  2.0000000000000000e+00  1.6344344786109366e+00  1.2895690769736332e+00  9.8225971773731158e-01  7.2298001678433155e-01  5.1520733316234535e-01  3.5650379094077084e-01  2.4052410990593195e-01  1.5913389327809460e-01  1.0409393598735386e-01  6.8109710776556143e-02  4.5297563869468940e-02  3.1236781687360753e-02  2.2789943175119821e-02  1.7833575331825297e-02  1.4987399158493092e-02  1.3385097585770578e-02  1.2499398023391183e-02  1.2018015629664862e-02  1.1760454048911769e-02  1.1624663220314907e-02  1.1554100234339688e-02  1.1518036985259935e-02  1.1500127691133634e-02  1.1491969903248354e-02  1.1489632575096095e-02  1.1491972176592327e-02  1.1500132967001532e-02  1.1518046896998384e-02  1.1554117689987384e-02  1.1624693005567000e-02  1.1760503705649258e-02  1.2018096640395826e-02  1.2499527288243191e-02  1.3385299091275100e-02  1.4987705598404882e-02  1.7834029256358307e-02  2.2790597049967509e-02  3.1237696107826413e-02  4.5298803201030337e-02  6.8111335789055594e-02  1.0409599367017135e-01  1.5913640489507175e-01  2.4052705922292222e-01  3.5650711504905724e-01  5.1521091806289365e-01  7.2298369878604940e-01  9.8226329008658009e-01  1.2895722996753700e+00  1.6344370887432476e+00  2.0000000000000000e+00  2.0000000000000000e+00  1.6336415066472396e+00  1.2880149611343552e+00  9.8000467494749077e-01  7.2010506373262073e-01  5.1180534517989273e-01  3.5267056679718967e-01  2.3635082769624197e-01  1.5470178066383780e-01  9.9471361235855496e-02  6.3351409150156815e-02  4.0445434997806437e-02  2.6321624478445761e-02  1.7833575331825297e-02  1.2850938165214947e-02  9.9884117170562000e-03  8.3761589554164385e-03  7.4845287883244169e-03  6.9996809827035525e-03  6.7401317509968323e-03  6.6032208988393015e-03  6.5320378713783671e-03  6.4956383879616044e-03  6.4775529958984819e-03  6.4693114582142497e-03  6.4669493572533342e-03  6.4693131114287351e-03  6.4775568206016281e-03  6.4956455414979467e-03  6.5320504052144299e-03  6.6032421719316049e-03  6.7401670293755133e-03  6.9997382445553535e-03  7.4846197253258789e-03  8.3763001047867606e-03  9.9886255700241955e-03  1.2851253980403758e-02  1.7834029256358398e-02  2.6322258486261501e-02  4.0446294153496369e-02  6.3352536860854333e-02  9.9472792499102722e-02  1.5470353382551341e-01  2.3635289577717902e-01  3.5267290983166139e-01  5.1180788503344188e-01  7.2010768244157042e-01  9.8000721685775283e-01  1.2880172383087616e+00  1.6336433063889020e+00  2.0000000000000000e+00  2.0000000000000000e+00  1.6331931267768254e+00  1.2871355254252508e+00  9.7872713413437074e-01  7.1847393900542644e-01  5.0987196321494654e-01  3.5048823860950412e-01  2.3397070509619344e-01  1.5216984837869327e-01  9.6826708137306955e-02  6.0625660211514353e-02  3.7663066387040797e-02  2.3500832427832675e-02  1.4987399158493092e-02  9.9884117170561879e-03  7.1156022211770129e-03  5.4970258974000267e-03  4.6015883850128803e-03  4.1144933779259010e-03  3.8536424746133655e-03  3.7159910742368386e-03  3.6443942668031208e-03  3.6077684236743074e-03  3.5895635371916792e-03  3.5812648049386633e-03  3.5788857092427335e-03  3.5812659792152212e-03  3.5895662450737068e-03  3.6077734649775676e-03  3.6444030526490349e-03  3.7160059026283714e-03  3.8536669280163365e-03  4.1145328542407534e-03  4.6016507548738090e-03  5.4971222450231547e-03  7.1157475702597070e-03  9.9886255700242389e-03  1.4987705598405007e-02  2.3501259471160801e-02  3.7663644266794770e-02  6.0626418350677946e-02  9.6827670765442353e-02  1.5217102903879465e-01  2.3397210062512624e-01  3.5048982345177798e-01  5.0987368503510910e-01  7.1847571643195363e-01  9.7872885711948887e-01  1.2871370582550690e+00  1.6331943132776592e+00  2.0000000000000000e+00  2.0000000000000000e+00  1.6329444881173600e+00  1.2866474992058754e+00  9.7801741104864248e-01  7.1756651850466824e-01  5.0879466148925834e-01  3.4927013794329914e-01  2.3263992533662381e-01  1.5075188866488401e-01  9.5343449976560343e-02  5.9094987069154163e-02  3.6098967161500628e-02  2.1913821944772680e-02  1.3385097585770575e