<?xml version="1.0"?>
<VTKFile type="UnstructuredGrid"  version="0.1"  >
<UnstructuredGrid>
<Piece  NumberOfPoints="2601" NumberOfCells="5000">
<Points>
<DataArray  type="Float64"  NumberOfComponents="3"  format="ascii">0 0 0  0.02 0 0  0.04 0 0  0.06 0 0  0.08 0 0  0.1 0 0  0.12 0 0  0.14 0 0  0.16 0 0  0.18 0 0  0.2 0 0  0.22 0 0  0.24 0 0  0.26 0 0  0.28 0 0  0.3 0 0  0.32 0 0  0.34 0 0  0.36 0 0  0.38 0 0  0.4 0 0  0.42 0 0  0.44 0 0  0.46 0 0  0.48 0 0  0.5 0 0  0.52 0 0  0.54 0 0  0.5600000000000001 0 0  0.58 0 0  0.6 0 0  0.62 0 0  0.64 0 0  0.66 0 0  0.68 0 0  0.7 0 0  0.72 0 0  0.74 0 0  0.76 0 0  0.78 0 0  0.8 0 0  0.82 0 0  0.84 0 0  0.86 0 0  0.88 0 0  0.9 0 0  0.92 0 0  0.9399999999999999 0 0  0.96 0 0  0.98 0 0  1 0 0  0 0.02 0  0.02 0.02 0  0.04 0.02 0  0.06 0.02 0  0.08 0.02 0  0.1 0.02 0  0.12 0.02 0  0.14 0.02 0  0.16 0.02 0  0.18 0.02 0  0.2 0.02 0  0.22 0.02 0  0.24 0.02 0  0.26 0.02 0  0.28 0.02 0  0.3 0.02 0  0.32 0.02 0  0.34 0.02 0  0.36 0.02 0  0.38 0.02 0  0.4 0.02 0  0.42 0.02 0  0.44 0.02 0  0.46 0.02 0  0.48 0.02 0  0.5 0.02 0  0.52 0.02 0  0.54 0.02 0  0.5600000000000001 0.02 0  0.58 0.02 0  0.6 0.02 0  0.62 0.02 0  0.64 0.02 0  0.66 0.02 0  0.68 0.02 0  0.7 0.02 0  0.72 0.02 0  0.74 0.02 0  0.76 0.02 0  0.78 0.02 0  0.8 0.02 0  0.82 0.02 0  0.84 0.02 0  0.86 0.02 0  0.88 0.02 0  0.9 0.02 0  0.92 0.02 0  0.9399999999999999 0.02 0  0.96 0.02 0  0.98 0.02 0  1 0.02 0  0 0.04 0  0.02 0.04 0  0.04 0.04 0  0.06 0.04 0  0.08 0.04 0  0.1 0.04 0  0.12 0.04 0  0.14 0.04 0  0.16 0.04 0  0.18 0.04 0  0.2 0.04 0  0.22 0.04 0  0.24 0.04 0  0.26 0.04 0  0.28 0.04 0  0.3 0.04 0  0.32 0.04 0  0.34 0.04 0  0.36 0.04 0  0.38 0.04 0  0.4 0.04 0  0.42 0.04 0  0.44 0.04 0  0.46 0.04 0  0.48 0.04 0  0.5 0.04 0  0.52 0.04 0  0.54 0.04 0  0.5600000000000001 0.04 0  0.58 0.04 0  0.6 0.04 0  0.62 0.04 0  0.64 0.04 0  0.66 0.04 0  0.68 0.04 0  0.7 0.04 0  0.72 0.04 0  0.74 0.04 0  0.76 0.04 0  0.78 0.04 0  0.8 0.04 0  0.82 0.04 0  0.84 0.04 0  0.86 0.04 0  0.88 0.04 0  0.9 0.04 0  0.92 0.04 0  0.9399999999999999 0.04 0  0.96 0.04 0  0.98 0.04 0  1 0.04 0  0 0.06 0  0.02 0.06 0  0.04 0.06 0  0.06 0.06 0  0.08 0.06 0  0.1 0.06 0  0.12 0.06 0  0.14 0.06 0  0.16 0.06 0  0.18 0.06 0  0.2 0.06 0  0.22 0.06 0  0.24 0.06 0  0.26 0.06 0  0.28 0.06 0  0.3 0.06 0  0.32 0.06 0  0.34 0.06 0  0.36 0.06 0  0.38 0.06 0  0.4 0.06 0  0.42 0.06 0  0.44 0.06 0  0.46 0.06 0  0.48 0.06 0  0.5 0.06 0  0.52 0.06 0  0.54 0.06 0  0.5600000000000001 0.06 0  0.58 0.06 0  0.6 0.06 0  0.62 0.06 0  0.64 0.06 0  0.66 0.06 0  0.68 0.06 0  0.7 0.06 0  0.72 0.06 0  0.74 0.06 0  0.76 0.06 0  0.78 0.06 0  0.8 0.06 0  0.82 0.06 0  0.84 0.06 0  0.86 0.06 0  0.88 0.06 0  0.9 0.06 0  0.92 0.06 0  0.9399999999999999 0.06 0  0.96 0.06 0  0.98 0.06 0  1 0.06 0  0 0.08 0  0.02 0.08 0  0.04 0.08 0  0.06 0.08 0  0.08 0.08 0  0.1 0.08 0  0.12 0.08 0  0.14 0.08 0  0.16 0.08 0  0.18 0.08 0  0.2 0.08 0  0.22 0.08 0  0.24 0.08 0  0.26 0.08 0  0.28 0.08 0  0.3 0.08 0  0.32 0.08 0  0.34 0.08 0  0.36 0.08 0  0.38 0.08 0  0.4 0.08 0  0.42 0.08 0  0.44 0.08 0  0.46 0.08 0  0.48 0.08 0  0.5 0.08 0  0.52 0.08 0  0.54 0.08 0  0.5600000000000001 0.08 0  0.58 0.08 0  0.6 0.08 0  0.62 0.08 0  0.64 0.08 0  0.66 0.08 0  0.68 0.08 0  0.7 0.08 0  0.72 0.08 0  0.74 0.08 0  0.76 0.08 0  0.78 0.08 0  0.8 0.08 0  0.82 0.08 0  0.84 0.08 0  0.86 0.08 0  0.88 0.08 0  0.9 0.08 0  0.92 0.08 0  0.9399999999999999 0.08 0  0.96 0.08 0  0.98 0.08 0  1 0.08 0  0 0.1 0  0.02 0.1 0  0.04 0.1 0  0.06 0.1 0  0.08 0.1 0  0.1 0.1 0  0.12 0.1 0  0.14 0.1 0  0.16 0.1 0  0.18 0.1 0  0.2 0.1 0  0.22 0.1 0  0.24 0.1 0  0.26 0.1 0  0.28 0.1 0  0.3 0.1 0  0.32 0.1 0  0.34 0.1 0  0.36 0.1 0  0.38 0.1 0  0.4 0.1 0  0.42 0.1 0  0.44 0.1 0  0.46 0.1 0  0.48 0.1 0  0.5 0.1 0  0.52 0.1 0  0.54 0.1 0  0.5600000000000001 0.1 0  0.58 0.1 0  0.6 0.1 0  0.62 0.1 0  0.64 0.1 0  0.66 0.1 0  0.68 0.1 0  0.7 0.1 0  0.72 0.1 0  0.74 0.1 0  0.76 0.1 0  0.78 0.1 0  0.8 0.1 0  0.82 0.1 0  0.84 0.1 0  0.86 0.1 0  0.88 0.1 0  0.9 0.1 0  0.92 0.1 0  0.9399999999999999 0.1 0  0.96 0.1 0  0.98 0.1 0  1 0.1 0  0 0.12 0  0.02 0.12 0  0.04 0.12 0  0.06 0.12 0  0.08 0.12 0  0.1 0.12 0  0.12 0.12 0  0.14 0.12 0  0.16 0.12 0  0.18 0.12 0  0.2 0.12 0  0.22 0.12 0  0.24 0.12 0  0.26 0.12 0  0.28 0.12 0  0.3 0.12 0  0.32 0.12 0  0.34 0.12 0  0.36 0.12 0  0.38 0.12 0  0.4 0.12 0  0.42 0.12 0  0.44 0.12 0  0.46 0.12 0  0.48 0.12 0  0.5 0.12 0  0.52 0.12 0  0.54 0.12 0  0.5600000000000001 0.12 0  0.58 0.12 0  0.6 0.12 0  0.62 0.12 0  0.64 0.12 0  0.66 0.12 0  0.68 0.12 0  0.7 0.12 0  0.72 0.12 0  0.74 0.12 0  0.76 0.12 0  0.78 0.12 0  0.8 0.12 0  0.82 0.12 0  0.84 0.12 0  0.86 0.12 0  0.88 0.12 0  0.9 0.12 0  0.92 0.12 0  0.9399999999999999 0.12 0  0.96 0.12 0  0.98 0.12 0  1 0.12 0  0 0.14 0  0.02 0.14 0  0.04 0.14 0  0.06 0.14 0  0.08 0.14 0  0.1 0.14 0  0.12 0.14 0  0.14 0.14 0  0.16 0.14 0  0.18 0.14 0  0.2 0.14 0  0.22 0.14 0  0.24 0.14 0  0.26 0.14 0  0.28 0.14 0  0.3 0.14 0  0.32 0.14 0  0.34 0.14 0  0.36 0.14 0  0.38 0.14 0  0.4 0.14 0  0.42 0.14 0  0.44 0.14 0  0.46 0.14 0  0.48 0.14 0  0.5 0.14 0  0.52 0.14 0  0.54 0.14 0  0.5600000000000001 0.14 0  0.58 0.14 0  0.6 0.14 0  0.62 0.14 0  0.64 0.14 0  0.66 0.14 0  0.68 0.14 0  0.7 0.14 0  0.72 0.14 0  0.74 0.14 0  0.76 0.14 0  0.78 0.14 0  0.8 0.14 0  0.82 0.14 0  0.84 0.14 0  0.86 0.14 0  0.88 0.14 0  0.9 0.14 0  0.92 0.14 0  0.9399999999999999 0.14 0  0.96 0.14 0  0.98 0.14 0  1 0.14 0  0 0.16 0  0.02 0.16 0  0.04 0.16 0  0.06 0.16 0  0.08 0.16 0  0.1 0.16 0  0.12 0.16 0  0.14 0.16 0  0.16 0.16 0  0.18 0.16 0  0.2 0.16 0  0.22 0.16 0  0.24 0.16 0  0.26 0.16 0  0.28 0.16 0  0.3 0.16 0  0.32 0.16 0  0.34 0.16 0  0.36 0.16 0  0.38 0.16 0  0.4 0.16 0  0.42 0.16 0  0.44 0.16 0  0.46 0.16 0  0.48 0.16 0  0.5 0.16 0  0.52 0.16 0  0.54 0.16 0  0.5600000000000001 0.16 0  0.58 0.16 0  0.6 0.16 0  0.62 0.16 0  0.64 0.16 0  0.66 0.16 0  0.68 0.16 0  0.7 0.16 0  0.72 0.16 0  0.74 0.16 0  0.76 0.16 0  0.78 0.16 0  0.8 0.16 0  0.82 0.16 0  0.84 0.16 0  0.86 0.16 0  0.88 0.16 0  0.9 0.16 0  0.92 0.16 0  0.9399999999999999 0.16 0  0.96 0.16 0  0.98 0.16 0  1 0.16 0  0 0.18 0  0.02 0.18 0  0.04 0.18 0  0.06 0.18 0  0.08 0.18 0  0.1 0.18 0  0.12 0.18 0  0.14 0.18 0  0.16 0.18 0  0.18 0.18 0  0.2 0.18 0  0.22 0.18 0  0.24 0.18 0  0.26 0.18 0  0.28 0.18 0  0.3 0.18 0  0.32 0.18 0  0.34 0.18 0  0.36 0.18 0  0.38 0.18 0  0.4 0.18 0  0.42 0.18 0  0.44 0.18 0  0.46 0.18 0  0.48 0.18 0  0.5 0.18 0  0.52 0.18 0  0.54 0.18 0  0.5600000000000001 0.18 0  0.58 0.18 0  0.6 0.18 0  0.62 0.18 0  0.64 0.18 0  0.66 0.18 0  0.68 0.18 0  0.7 0.18 0  0.72 0.18 0  0.74 0.18 0  0.76 0.18 0  0.78 0.18 0  0.8 0.18 0  0.82 0.18 0  0.84 0.18 0  0.86 0.18 0  0.88 0.18 0  0.9 0.18 0  0.92 0.18 0  0.9399999999999999 0.18 0  0.96 0.18 0  0.98 0.18 0  1 0.18 0  0 0.2 0  0.02 0.2 0  0.04 0.2 0  0.06 0.2 0  0.08 0.2 0  0.1 0.2 0  0.12 0.2 0  0.14 0.2 0  0.16 0.2 0  0.18 0.2 0  0.2 0.2 0  0.22 0.2 0  0.24 0.2 0  0.26 0.2 0  0.28 0.2 0  0.3 0.2 0  0.32 0.2 0  0.34 0.2 0  0.36 0.2 0  0.38 0.2 0  0.4 0.2 0  0.42 0.2 0  0.44 0.2 0  0.46 0.2 0  0.48 0.2 0  0.5 0.2 0  0.52 0.2 0  0.54 0.2 0  0.5600000000000001 0.2 0  0.58 0.2 0  0.6 0.2 0  0.62 0.2 0  0.64 0.2 0  0.66 0.2 0  0.68 0.2 0  0.7 0.2 0  0.72 0.2 0  0.74 0.2 0  0.76 0.2 0  0.78 0.2 0  0.8 0.2 0  0.82 0.2 0  0.84 0.2 0  0.86 0.2 0  0.88 0.2 0  0.9 0.2 0  0.92 0.2 0  0.9399999999999999 0.2 0  0.96 0.2 0  0.98 0.2 0  1 0.2 0  0 0.22 0  0.02 0.22 0  0.04 0.22 0  0.06 0.22 0  0.08 0.22 0  0.1 0.22 0  0.12 0.22 0  0.14 0.22 0  0.16 0.22 0  0.18 0.22 0  0.2 0.22 0  0.22 0.22 0  0.24 0.22 0  0.26 0.22 0  0.28 0.22 0  0.3 0.22 0  0.32 0.22 0  0.34 0.22 0  0.36 0.22 0  0.38 0.22 0  0.4 0.22 0  0.42 0.22 0  0.44 0.22 0  0.46 0.22 0  0.48 0.22 0  0.5 0.22 0  0.52 0.22 0  0.54 0.22 0  0.5600000000000001 0.22 0  0.58 0.22 0  0.6 0.22 0  0.62 0.22 0  0.64 0.22 0  0.66 0.22 0  0.68 0.22 0  0.7 0.22 0  0.72 0.22 0  0.74 0.22 0  0.76 0.22 0  0.78 0.22 0  0.8 0.22 0  0.82 0.22 0  0.84 0.22 0  0.86 0.22 0  0.88 0.22 0  0.9 0.22 0  0.92 0.22 0  0.9399999999999999 0.22 0  0.96 0.22 0  0.98 0.22 0  1 0.22 0  0 0.24 0  0.02 0.24 0  0.04 0.24 0  0.06 0.24 0  0.08 0.24 0  0.1 0.24 0  0.12 0.24 0  0.14 0.24 0  0.16 0.24 0  0.18 0.24 0  0.2 0.24 0  0.22 0.24 0  0.24 0.24 0  0.26 0.24 0  0.28 0.24 0  0.3 0.24 0  0.32 0.24 0  0.34 0.24 0  0.36 0.24 0  0.38 0.24 0  0.4 0.24 0  0.42 0.24 0  0.44 0.24 0  0.46 0.24 0  0.48 0.24 0  0.5 0.24 0  0.52 0.24 0  0.54 0.24 0  0.5600000000000001 0.24 0  0.58 0.24 0  0.6 0.24 0  0.62 0.24 0  0.64 0.24 0  0.66 0.24 0  0.68 0.24 0  0.7 0.24 0  0.72 0.24 0  0.74 0.24 0  0.76 0.24 0  0.78 0.24 0  0.8 0.24 0  0.82 0.24 0  0.84 0.24 0  0.86 0.24 0  0.88 0.24 0  0.9 0.24 0  0.92 0.24 0  0.9399999999999999 0.24 0  0.96 0.24 0  0.98 0.24 0  1 0.24 0  0 0.26 0  0.02 0.26 0  0.04 0.26 0  0.06 0.26 0  0.08 0.26 0  0.1 0.26 0  0.12 0.26 0  0.14 0.26 0  0.16 0.26 0  0.18 0.26 0  0.2 0.26 0  0.22 0.26 0  0.24 0.26 0  0.26 0.26 0  0.28 0.26 0  0.3 0.26 0  0.32 0.26 0  0.34 0.26 0  0.36 0.26 0  0.38 0.26 0  0.4 0.26 0  0.42 0.26 0  0.44 0.26 0  0.46 0.26 0  0.48 0.26 0  0.5 0.26 0  0.52 0.26 0  0.54 0.26 0  0.5600000000000001 0.26 0  0.58 0.26 0  0.6 0.26 0  0.62 0.26 0  0.64 0.26 0  0.66 0.26 0  0.68 0.26 0  0.7 0.26 0  0.72 0.26 0  0.74 0.26 0  0.76 0.26 0  0.78 0.26 0  0.8 0.26 0  0.82 0.26 0  0.84 0.26 0  0.86 0.26 0  0.88 0.26 0  0.9 0.26 0  0.92 0.26 0  0.9399999999999999 0.26 0  0.96 0.26 0  0.98 0.26 0  1 0.26 0  0 0.28 0  0.02 0.28 0  0.04 0.28 0  0.06 0.28 0  0.08 0.28 0  0.1 0.28 0  0.12 0.28 0  0.14 0.28 0  0.16 0.28 0  0.18 0.28 0  0.2 0.28 0  0.22 0.28 0  0.24 0.28 0  0.26 0.28 0  0.28 0.28 0  0.3 0.28 0  0.32 0.28 0  0.34 0.28 0  0.36 0.28 0  0.38 0.28 0  0.4 0.28 0  0.42 0.28 0  0.44 0.28 0  0.46 0.28 0  0.48 0.28 0  0.5 0.28 0  0.52 0.28 0  0.54 0.28 0  0.5600000000000001 0.28 0  0.58 0.28 0  0.6 0.28 0  0.62 0.28 0  0.64 0.28 0  0.66 0.28 0  0.68 0.28 0  0.7 0.28 0  0.72 0.28 0  0.74 0.28 0  0.76 0.28 0  0.78 0.28 0  0.8 0.28 0  0.82 0.28 0  0.84 0.28 0  0.86 0.28
[...]
<PointData  Scalars="f_12"> 
<DataArray  type="Float64"  Name="f_12"  format="ascii">2.0000000000000000e+00  2.0000000000000000e+00  2.0000000000000000e+00  2.0000000000000000e+00  2.0000000000000000e+00  2.0000000000000000e+00  2.0000000000000000e+00  2.0000000000000000e+00  2.0000000000000000e+00  2.0000000000000000e+00  2.0000000000000000e+00  2.0000000000000000e+00  2.0000000000000000e+00  2.0000000000000000e+00  2.0000000000000000e+00  2.0000000000000000e+00  2.0000000000000000e+00  2.0000000000000000e+00  2.0000000000000000e+00  2.0000000000000000e+00  2.0000000000000000e+00  2.0000000000000000e+00  2.0000000000000000e+00  2.0000000000000000e+00  2.0000000000000000e+00  2.0000000000000000e+00  2.0000000000000000e+00  2.0000000000000000e+00  2.0000000000000000e+00  2.0000000000000000e+00  2.0000000000000000e+00  2.0000000000000000e+00  2.0000000000000000e+00  2.0000000000000000e+00  2.0000000000000000e+00  2.0000000000000000e+00  2.0000000000000000e+00  2.0000000000000000e+00  2.0000000000000000e+00  2.0000000000000000e+00  2.0000000000000000e+00  2.0000000000000000e+00  2.0000000000000000e+00  2.0000000000000000e+00  2.0000000000000000e+00  2.0000000000000000e+00  2.0000000000000000e+00  2.0000000000000000e+00  2.0000000000000000e+00  2.0000000000000000e+00  2.0000000000000000e+00  2.0000000000000000e+00  1.9223149209392241e+00  1.8498628899200356e+00  1.7867642112196844e+00  1.7352162705097660e+00  1.6955146713996436e+00  1.6665299833360445e+00  1.6463639158701042e+00  1.6329255674329604e+00  1.6243092675308555e+00  1.6189721417586185e+00  1.6157669224166222e+00  1.6138948111142057e+00  1.6128284157412678e+00  1.6122345924006183e+00  1.6119106564575836e+00  1.6117372270173767e+00  1.6116459521968847e+00  1.6115986630219505e+00  1.6115745143925984e+00  1.6115623475945795e+00  1.6115562969446489e+00  1.6115533317084716e+00  1.6115519148742943e+00  1.6115512898690296e+00  1.6115511150481365e+00  1.6115512934658345e+00  1.6115519236704876e+00  1.6115533495050254e+00  1.6115563310885543e+00  1.6115624113970903e+00  1.6115746310943706e+00  1.6115988718766843e+00  1.6116463171355886e+00  1.6117378477614106e+00  1.6119116804122340e+00  1.6122362225818951e+00  1.6128309048732399e+00  1.6138984251658097e+00  1.6157718505621228e+00  1.6189783301509095e+00  1.6243161721933821e+00  1.6329318695899357e+00  1.6463673236784364e+00  1.6665273262189251e+00  1.6955024881295164e+00  1.7351918686905787e+00  1.7867266739311112e+00  1.8498128921051491e+00  1.9222515111995739e+00  2.0000000000000000e+00  2.0000000000000000e+00  1.8498628899200376e+00  1.7098321532909522e+00  1.5877949090174894e+00  1.4880064054839368e+00  1.4110678881582908e+00  1.3548322075874548e+00  1.3156589221049548e+00  1.2895227775768139e+00  1.2727450355524905e+00  1.2623405546491460e+00  1.2560852264737479e+00  1.2524277598067282e+00  1.2503423107225793e+00  1.2491799320946317e+00  1.2485452802356625e+00  1.2482052141343885e+00  1.2480260979612496e+00  1.2479332292841949e+00  1.2478857717316247e+00  1.2478618453399510e+00  1.2478499391005857e+00  1.2478441007796608e+00  1.2478413095722829e+00  1.2478400775300869e+00  1.2478397322829187e+00  1.2478400827166920e+00  1.2478413221923346e+00  1.2478441261267521e+00  1.2478499873057918e+00  1.2478619345327868e+00  1.2478859331075416e+00  1.2479335146482045e+00  1.2480265900243241e+00  1.2482060388553451e+00  1.2485466182859433e+00  1.2491820224814685e+00  1.2503454335192483e+00  1.2524321779259413e+00  1.2560910625011532e+00  1.2623475864491607e+00  1.2727524262877041e+00  1.2895288220791179e+00  1.3156609821865333e+00  1.3548270665376356e+00  1.4110526614374923e+00  1.4879797811601789e+00  1.5877579291267407e+00  1.7097875081964424e+00  1.8498128921051478e+00  2.0000000000000000e+00  2.0000000000000000e+00  1.7867642112196844e+00  1.5877949090174881e+00  1.4142183249168030e+00  1.2720935117480163e+00  1.1623373903402936e+00  1.0819748230975890e+00  1.0258937946747588e+00  9.8840908326645449e-01  9.6430344107730537e-01  9.4932890330845321e-01  9.4031111641641862e-01  9.3503015555061164e-01  9.3201451531514468e-01  9.3033129984829399e-01  9.2941105041530636e-01  9.2891733301188295e-01  9.2865697923878798e-01  9.2852183952183653e-01  9.2845270798486257e-01  9.2841781973485360e-01  9.2840044242937159e-01  9.2839191387900177e-01  9.2838783324376839e-01  9.2838603072191284e-01  9.2838552500043270e-01  9.2838603683107324e-01  9.2838784806431462e-01  9.2839194351963616e-01  9.2840049851948192e-01  9.2841792295261671e-01  9.2845289365662154e-01  9.2852216585295744e-01  9.2865753836626919e-01  9.2891826394247745e-01  9.2941255049070892e-01  9.3033362712848633e-01  9.3201796815944959e-01  9.3503500917991267e-01  9.4031749384764074e-01  9.4933656851365478e-01  9.6431153733362462e-01  9.8841590664947065e-01  1.0258967765658060e+00  1.0819709363806163e+00  1.1623240843501672e+00  1.2720699374669511e+00  1.4141861515052012e+00  1.5877579291267403e+00  1.7867266739311121e+00  2.0000000000000000e+00  2.0000000000000000e+00  1.7352162705097647e+00  1.4880064054839339e+00  1.2720935117480163e+00  1.0950206106658964e+00  9.5801526508367307e-01  8.5749104519824526e-01  7.8718671799140350e-01  7.4009112622190742e-01  7.0973862719242686e-01  6.9084329743552930e-01  6.7944097723211638e-01  6.7275044936400452e-01  6.6892272431897293e-01  6.6678242909147611e-01  6.6561030976110924e-01  6.6498045879683854e-01  6.6464781547835483e-01  6.6447490637353845e-01  6.6438633420844295e-01  6.6434157789657966e-01  6.6431925862515018e-01  6.6430829229829280e-01  6.6430303988829575e-01  6.6430071769229715e-01  6.6430006545123754e-01  6.6430072415202368e-01  6.6430305552061220e-01  6.6430832345409219e-01  6.6431931734751604e-01  6.6434168550218164e-01  6.6438652694063904e-01  6.6447524366583488e-01  6.6464839099657780e-01  6.6498141333706129e-01  6.6561184278619867e-01  6.6678480175470056e-01  6.6892624132574263e-01  6.7275540145994306e-01  6.7944752464358138e-01  6.9085128489876768e-01  7.0974735293535396e-01  7.4009914503603547e-01  7.8719182756726425e-01  8.5749063487425103e-01  9.5800711552567774e-01  1.0950039697923475e+00  1.2720699374669517e+00  1.4879797811601803e+00  1.7351918686905781e+00  2.0000000000000000e+00  2.0000000000000000e+00  1.6955146713996425e+00  1.4110678881582899e+00  1.1623373903402938e+00  9.5801526508367307e-01  7.9961388865053140e-01  6.8313522682910832e-01  6.0148324230056605e-01  5.4665595349271090e-01  5.1123647590932386e-01  4.8913525007002667e-01  4.7576801964442039e-01  4.6790733797991335e-01  4.6340069040175286e-01  4.6087570330415778e-01  4.5949025897897888e-01  4.5874441756893786e-01  4.5834983331931972e-01  4.5814438937890761e-01  4.5803898682269983e-01  4.5798564697481114e-01  4.5795900991043065e-01  4.5794590488351355e-01  4.5793962062354554e-01  4.5793683939255625e-01  4.5793605738393395e-01  4.5793684574631138e-01  4.5793963596282566e-01  4.5794593535394201e-01  4.5795906712510065e-01  4.5798575140882536e-01  4.5803917315291759e-01  4.5814471427063147e-01  4.5835038583660137e-01  4.5874533143455837e-01  4.5949172393770193e-01  4.6087796951486981e-01  4.6340405522955991e-01  4.6791210009821799e-01  4.7577438443271508e-01  4.8914317894944093e-01  5.1124549764709815e-01  5.4666500031774656e-01  6.0149062574835266e-01  6.8313889057767085e-01  7.9961201258963044e-01  9.5800711552567852e-01  1.1623240843501688e+00  1.4110526614374934e+00  1.6955024881295158e+00  2.0000000000000000e+00  2.0000000000000000e+00  1.6665299833360436e+00  1.3548322075874550e+00  1.0819748230975905e+00  8.5749104519824537e-01  6.8313522682910843e-01  5.5465565087162549e-01  4.6438850028543777e-01  4.0363519755854588e-01  3.6429494896287734e-01  3.3968970005008242e-01  3.2477371979923536e-01  3.1598260821650287e-01  3.1093158575845276e-01  3.0809567425436779e-01  3.0653650080366573e-01  3.0569551790249716e-01  3.0524978014080750e-01  3.0501729434860880e-01  3.0489781772522434e-01  3.0483725877861562e-01  3.0480697060698692e-01  3.0479204798091164e-01  3.0478488280799554e-01  3.0478170822089551e-01  3.0478081467620810e-01  3.0478171413558947e-01  3.0478489705229395e-01  3.0479207617995735e-01  3.0480702335363175e-01  3.0483735467816520e-01  3.0489798817227726e-01  3.0501759048543059e-01  3.0525028218618255e-01  3.0569634627384279e-01  3.0653782687868486e-01  3.0809772599269258e-01  3.1093463986784592e-01  3.1598695715839314e-01  3.2477960129499905e-01  3.3969718325861981e-01  3.6430379005893460e-01  4.0364470946104120e-01  4.6439751785505151e-01  5.5466268915124850e-01  6.8313889057767208e-01  8.5749063487425203e-01  1.0819709363806180e+00  1.3548270665376374e+00  1.6665273262189262e+00  2.0000000000000000e+00  2.0000000000000000e+00  1.6463639158701038e+00  1.3156589221049546e+00  1.0258937946747606e+00  7.8718671799140305e-01  6.0148324230056560e-01  4.6438850028543766e-01  3.6787477495985921e-01  3.0278005731518609e-01  2.6053726122115239e-01  2.3405895819113465e-01  2.1797266331848789e-01  2.0847151739852063e-01  2.0300111497531398e-01  1.9992348847782099e-01  1.9822808292858768e-01  1.9731187664795333e-01  1.9682537689544313e-01  1.9657118211205807e-01  1.9644032715635323e-01  1.9637389283709070e-01  1.9634061441714429e-01  1.9632419442618634e-01  1.9631629970104147e-01  1.9631279792853737e-01  1.9631181129900754e-01  1.9631280319041758e-01  1.9631631234031083e-01  1.9632421935774375e-01  1.9634066086305654e-01  1.9637397693113906e-01  1.9644047601990494e-01  1.9657143978660302e-01  1.9682581232198534e-01  1.9731259330193812e-01  1.9822922852946182e-01  1.9992526123215465e-01  2.0300376020620794e-01  2.0847530594452540e-01  2.1797784259767461e-01  2.3406567129646397e-01  2.6054544200014512e-01  3.0278933075320308e-01  3.6788441633066465e-01  4.6439751785505140e-01  6.0149062574835321e-01  7.8719182756726613e-01  1.0258967765658076e+00  1.3156609821865344e+00  1.6463673236784362e+00  2.0000000000000000e+00  2.0000000000000000e+00  1.6329255674329588e+00  1.2895227775768145e+00  9.8840908326645360e-01  7.4009112622190654e-01  5.4665595349271090e-01  4.0363519755854560e-01  3.0278005731518609e-01  2.3463514845476771e-01  1.9033039555516201e-01  1.6250666282563525e-01  1.4557048098577177e-01  1.3554817128801877e-01  1.2976674464664639e-01  1.2650806081955179e-01  1.2470963078713425e-01  1.2373601555363056e-01  1.2321813494258912e-01  1.2294708816608771e-01  1.2280733062346361e-01  1.2273626475688500e-01  1.2270061236990201e-01  1.2268299572136769e-01  1.2267451446795763e-01  1.2267074836394110e-01  1.2266968625528561e-01  1.2267075286472742e-01  1.2267452524911460e-01  1.2268301690588003e-01  1.2270065166420868e-01  1.2273633558621855e-01  1.2280745546401572e-01  1.2294730338931723e-01  1.2321849734785617e-01  1.2373661034413348e-01  1.2471057988658753e-01  1.2650952902706286e-01  1.2976893928328778e-01  1.3555132924474511e-01  1.4557483666843704e-01  1.6251239331881004e-01  1.9033754732258884e-01  2.3464356334174377e-01  3.0278933075320363e-01  4.0364470946104170e-01  5.4666500031774845e-01  7.4009914503603746e-01  9.8841590664947243e-01  1.2895288220791206e+00  1.6329318695899362e+00  2.0000000000000000e+00  2.0000000000000000e+00  1.6243092675308566e+00  1.2727450355524892e+00  9.6430344107730459e-01  7.0973862719242564e-01  5.1123647590932353e-01  3.6429494896287656e-01  2.6053726122115256e-01  1.9033039555516199e-01  1.4461575991391531e-01  1.1586142178857740e-01  9.8330616276622262e-02  8.7939540365095589e-02  8.1935605399224135e-02  7.8546004829986873e-02  7.6672311903089319e-02  7.5656341551013487e-02  7.5115088884336129e-02  7.4831377007147773e-02  7.4684870767915676e-02  7.4610264944704130e-02  7.4572783910612533e-02  7.4554238740029463e-02  7.4545299379885535e-02  7.4541325707111500e-02  7.4540204092726062e-02  7.4541329423763264e-02  7.4545308256412229e-02  7.4554256110185152e-02  7.4572815979868937e-02  7.4610322473861720e-02  7.4684971691492325e-02  7.4831550232473273e-02  7.5115379421341819e-02  7.5656816828251192e-02  7.6673068529158048e-02  7.8547174093987607e-02  8.1937354540089172e-02  8.7942065435787434e-02  9.8334122065560345e-02  1.1586608590857193e-01  1.4462168296427919e-01  1.9033754732258906e-01  2.6054544200014612e-01  3.6430379005893526e-01  5.1124549764709948e-01  7.0974735293535607e-01  9.6431153733362662e-01  1.2727524262877059e+00  1.6243161721933839e+00  2.0000000000000000e+00  2.0000000000000000e+00  1.6189721417586187e+00  1.2623405546491460e+00  9.4932890330845443e-01  6.9084329743552886e-01  4.8913525007002601e-01  3.3968970005008187e-01  2.3405895819113470e-01  1.6250666282563539e-01  1.1586142178857768e-01  8.6485581236526402e-02  6.8552957726321889e-02  5.7909764577543495e-02  5.1751953777187443e-02  4.8270801276055202e-02  4.6343903159303070e-02  4.5297676384465184e-02  4.4739559101930976e-02  4.4446619785301469e-02  4.4295150948303483e-02  4.4217918940953442e-02  4.4179069843033388e-02  4.4159824522159594e-02  4.4150537262608439e-02  4.4146405038070657e-02  4.4145237777950742e-02  4.4146408009837705e-02  4.4150544337800669e-02  4.4159838306516166e-02  4.4179095165276697e-02  4.4217964132674349e-02  4.4295229826364725e-02  4.4446754519531541e-02  4.4739784085906398e-02  4.5298043026637244e-02  4.6344485108409314e-02  4.8271698946930737e-02  5.1753296198411361e-02  5.7911705766154904e-02  6.8555664482878934e-02  8.6489210140037229e-02  1.1586608590857203e-01  1.6251239331881029e-01  2.3406567129646472e-01  3.3969718325862092e-01  4.8914317894944259e-01  6.9085128489877035e-01  9.4933656851365789e-01  1.2623475864491633e+00  1.6189783301509104e+00  2.0000000000000000e+00  2.0000000000000000e+00  1.6157669224166222e+00  1.2560852264737496e+00  9.4031111641642018e-01  6.7944097723211705e-01  4.7576801964442073e-01  3.2477371979923508e-01  2.1797266331848825e-01  1.4557048098577219e-01  9.8330616276622526e-02  6.8552957726322014e-02  5.0357440605642241e-02  3.9547327777938790e-02  3.3286437983205609e-02  2.9743246494021821e-02  2.7779887777033961e-02  2.6712699808926092e-02  2.6142775329295591e-02  2.5843309832475375e-02  2.5688296739125722e-02  2.5609171496023243e-02  2.5569327312712931e-02  2.5549568437490920e-02  2.5540024057580702e-02  2.5535773926960870e-02  2.5534572571286825e-02  2.5535776232961861e-02  2.5540029529462407e-02  2.5549579048485812e-02  2.5569346701965329e-02  2.5609205908644492e-02  2.5688356475185983e-02  2.5843411334405153e-02  2.6142943993399156e-02  2.6712973472651315e-02  2.7780320566781643e-02  2.9743912293235138e-02  3.3287432227665406e-02  3.9548765741492374e-02  5.0359450086481933e-02  6.8555664482879128e-02  9.8334122065560470e-02  1.4557483666843737e-01  2.1797784259767564e-01  3.2477960129500033e-01  4.7577438443271747e-01  6.7944752464358527e-01  9.4031749384764418e-01  1.2560910625011565e+00  1.6157718505621237e+00  2.0000000000000000e+00  2.0000000000000000e+00  1.6138948111142066e+00  1.2524277598067288e+00  9.3503015555061286e-01  6.7275044936400485e-01  4.6790733797991385e-01  3.1598260821650304e-01  2.0847151739852099e-01  1.3554817128801949e-01  8.7939540365096186e-02  5.7909764577543828e-02  3.9547327777938908e-02  2.8629960684711731e-02  2.2302047022036083e-02  1.8718041645700418e-02  1.6730419545243097e-02  1.5649125536772477e-02  1.5071168415514199e-02  1.4767216056798019e-02  1.4609741336408478e-02  1.4529288246628662e-02  1.4488739591155986e-02  1.4468613929414058e-02  1.4458884444449122e-02  1.4454548879109108e-02  1.4453322702690622e-02  1.4454550618821980e-02  1.4458888558178434e-02  1.4468621867522843e-02  1.4488754014874313e-02  1.4529313696333810e-02  1.4609785255901118e-02  1.4767290261041018e-02  1.5071291059737233e-02  1.5649323556462008e-02  1.6730731363114322e-02  1.8718519668229336e-02  2.2302759093341940e-02  2.8630989310671425e-02  3.9548765741492568e-02  5.7911705766155321e-02  8.7942065435787850e-02  1.3555132924474567e-01  2.0847530594452668e-01  3.1598695715839542e-01  4.6791210009822165e-01  6.7275540145994761e-01  9.3503500917991822e-01  1.2524321779259480e+00  1.6138984251658133e+00  2.0000000000000000e+00  2.0000000000000000e+00  1.6128284157412687e+00  1.2503423107225788e+00  9.3201451531514523e-01  6.6892272431897359e-01  4.6340069040175386e-01  3.1093158575845331e-01  2.0300111497531517e-01  1.2976674464664739e-01  8.1935605399224898e-02  5.1751953777187852e-02  3.3286437983205790e-02  2.2302047022036170e-02  1.5931749480561953e-02  1.2321628733652733e-02  1.0318299996567807e-02  9.2277700523803845e-03  8.6444948026550908e-03  8.3375395913607691e-03  8.1784000815090865e-03  8.0970398535037472e-03  8.0560052410284782e-03  8.0356242395917526e-03  8.0257648232900207e-03  8.0213688832548643e-03  8.0201250819202548e-03  8.0213701612673553e-03  8.0257678342768313e-03  8.0356300199240054e-03  8.0560156820947831e-03  8.0970581622613752e-03  8.1784314818511110e-03  8.3375923226760539e-03  8.6445814519076677e-03  9.2279091984428137e-03  1.0318518034665426e-02  1.2321961574975185e-02  1.5932243598925235e-02  2.2302759093342051e-02  3.3287432227665753e-02  5.1753296198411923e-02  8.1937354540089838e-02  1.2976893928328873e-01  2.0300376020620978e-01  3.1093463986784853e-01  4.6340405522956329e-01  6.6892624132574863e-01  9.3201796815945648e-01  1.2503454335192559e+00  1.6128309048732450e+00  2.0000000000000000e+00  2.0000000000000000e+00  1.6122345924006181e+00  1.2491799320946331e+00  9.3033129984829543e-01  6.6678242909147656e-01  4.6087570330415795e-01  3.0809567425436812e-01  1.9992348847782140e-01  1.2650806081955235e-01  7.8546004829987276e-02  4.8270801276055431e-02  2.9743246494021953e-02  1.8718041645700470e-02  1.2321628733652739e-02  8.6952263744462313e-03  6.6819906230344960e-03  5.5855678626235703e-03  4.9988611054545386e-03  4.6899469199787117e-03  4.5297096870050629e-03  4.4477450922156669e-03  4.4063834806684892e-03  4.3858290379159646e-03  4.3758806104009645e-03  4.3714430222909599e-03  4.3701870024422393e-03  4.3714439376950466e-03  4.3758827589515685e-03  4.3858331405674687e-03  4.4063908457640504e-03  4.4477579236300718e-03  4.5297315500657607e-03  4.6899833998407863e-03  4.9989206790028145e-03  5.5856629678964105e-03  6.6821388404221718e-03  8.6954515267877053e-03  1.2321961574975246e-02  1.8718519668229489e-02  2.9743912293235496e-02  4.8271698946931438e-02  7.8547174093988453e-02  1.2650952902706419e-01  1.9992526123215679e-01  3.0809772599269569e-01  4.6087796951487431e-01  6.6678480175470756e-01  9.3033362712849399e-01  1.2491820224814771e+00  1.6122362225819000e+00  2.0000000000000000e+00  2.0000000000000000e+00  1.6119106564575847e+00  1.2485452802356658e+00  9.2941105041530669e-01  6.6561030976110891e-01  4.5949025897897877e-01  3.0653650080366546e-01  1.9822808292858773e-01  1.2470963078713453e-01  7.6672311903089527e-02  4.6343903159303187e-02  2.7779887777034044e-02  1.6730419545243101e-02  1.0318299996567804e-02  6.6819906230344926e-03  4.6626563545483155e-03  3.5625642552492278e-03  2.9736964899857378e-03  2.6635348918563205e-03  2.5025910633365502e-03  2.4202333318303097e-03  2.3786568423494769e-03  2.3579873282028102e-03  2.3479793298001768e-03  2.3435136708836132e-03  2.3422493739617715e-03  2.3435143109586921e-03  2.3479808262957726e-03  2.3579901700133779e-03  2.3786619115020854e-03  2.4202421039259381e-03  2.5026059082628033e-03  2.6635594951145893e-03  2.9737364058076482e-03  3.5626275791354189e-03  4.6627544597528294e-03  6.6821388404222056e-03  1.0318518034665505e-02  1.6730731363114485e-02  2.7780320566782014e-02  4.6344485108409945e-02  7.6673068529158908e-02  1.2471057988658889e-01  1.9822922852946401e-01  3.0653782687868786e-01  4.5949172393770660e-01  6.6561184278620522e-01  9.2941255049071514e-01  1.2485466182859508e+00  1.6119116804122395e+00  2.0000000000000000e+00  2.0000000000000000e+00  1.6117372270173778e+00  1.2482052141343891e+00  9.2891733301188195e-01  6.6498045879683731e-01  4.5874441756893769e-01  3.0569551790249683e-01  1.9731187664795338e-01  1.2373601555363059e-01  7.5656341551013626e-02  4.5297676384465205e-02  2.6712699808926130e-02  1.5649125536772494e-02  9.2277700523803879e