<?xml version="1.0"?>
<VTKFile type="UnstructuredGrid"  version="0.1"  >
<UnstructuredGrid>
<Piece  NumberOfPoints="2601" NumberOfCells="5000">
<Points>
<DataArray  type="Float64"  NumberOfComponents="3"  format="ascii">0 0 0  0.02 0 0  0.04 0 0  0.06 0 0  0.08 0 0  0.1 0 0  0.12 0 0  0.14 0 0  0.16 0 0  0.18 0 0  0.2 0 0  0.22 0 0  0.24 0 0  0.26 0 0  0.28 0 0  0.3 0 0  0.32 0 0  0.34 0 0  0.36 0 0  0.38 0 0  0.4 0 0  0.42 0 0  0.44 0 0  0.46 0 0  0.48 0 0  0.5 0 0  0.52 0 0  0.54 0 0  0.5600000000000001 0 0  0.58 0 0  0.6 0 0  0.62 0 0  0.64 0 0  0.66 0 0  0.68 0 0  0.7 0 0  0.72 0 0  0.74 0 0  0.76 0 0  0.78 0 0  0.8 0 0  0.82 0 0  0.84 0 0  0.86 0 0  0.88 0 0  0.9 0 0  0.92 0 0  0.9399999999999999 0 0  0.96 0 0  0.98 0 0  1 0 0  0 0.02 0  0.02 0.02 0  0.04 0.02 0  0.06 0.02 0  0.08 0.02 0  0.1 0.02 0  0.12 0.02 0  0.14 0.02 0  0.16 0.02 0  0.18 0.02 0  0.2 0.02 0  0.22 0.02 0  0.24 0.02 0  0.26 0.02 0  0.28 0.02 0  0.3 0.02 0  0.32 0.02 0  0.34 0.02 0  0.36 0.02 0  0.38 0.02 0  0.4 0.02 0  0.42 0.02 0  0.44 0.02 0  0.46 0.02 0  0.48 0.02 0  0.5 0.02 0  0.52 0.02 0  0.54 0.02 0  0.5600000000000001 0.02 0  0.58 0.02 0  0.6 0.02 0  0.62 0.02 0  0.64 0.02 0  0.66 0.02 0  0.68 0.02 0  0.7 0.02 0  0.72 0.02 0  0.74 0.02 0  0.76 0.02 0  0.78 0.02 0  0.8 0.02 0  0.82 0.02 0  0.84 0.02 0  0.86 0.02 0  0.88 0.02 0  0.9 0.02 0  0.92 0.02 0  0.9399999999999999 0.02 0  0.96 0.02 0  0.98 0.02 0  1 0.02 0  0 0.04 0  0.02 0.04 0  0.04 0.04 0  0.06 0.04 0  0.08 0.04 0  0.1 0.04 0  0.12 0.04 0  0.14 0.04 0  0.16 0.04 0  0.18 0.04 0  0.2 0.04 0  0.22 0.04 0  0.24 0.04 0  0.26 0.04 0  0.28 0.04 0  0.3 0.04 0  0.32 0.04 0  0.34 0.04 0  0.36 0.04 0  0.38 0.04 0  0.4 0.04 0  0.42 0.04 0  0.44 0.04 0  0.46 0.04 0  0.48 0.04 0  0.5 0.04 0  0.52 0.04 0  0.54 0.04 0  0.5600000000000001 0.04 0  0.58 0.04 0  0.6 0.04 0  0.62 0.04 0  0.64 0.04 0  0.66 0.04 0  0.68 0.04 0  0.7 0.04 0  0.72 0.04 0  0.74 0.04 0  0.76 0.04 0  0.78 0.04 0  0.8 0.04 0  0.82 0.04 0  0.84 0.04 0  0.86 0.04 0  0.88 0.04 0  0.9 0.04 0  0.92 0.04 0  0.9399999999999999 0.04 0  0.96 0.04 0  0.98 0.04 0  1 0.04 0  0 0.06 0  0.02 0.06 0  0.04 0.06 0  0.06 0.06 0  0.08 0.06 0  0.1 0.06 0  0.12 0.06 0  0.14 0.06 0  0.16 0.06 0  0.18 0.06 0  0.2 0.06 0  0.22 0.06 0  0.24 0.06 0  0.26 0.06 0  0.28 0.06 0  0.3 0.06 0  0.32 0.06 0  0.34 0.06 0  0.36 0.06 0  0.38 0.06 0  0.4 0.06 0  0.42 0.06 0  0.44 0.06 0  0.46 0.06 0  0.48 0.06 0  0.5 0.06 0  0.52 0.06 0  0.54 0.06 0  0.5600000000000001 0.06 0  0.58 0.06 0  0.6 0.06 0  0.62 0.06 0  0.64 0.06 0  0.66 0.06 0  0.68 0.06 0  0.7 0.06 0  0.72 0.06 0  0.74 0.06 0  0.76 0.06 0  0.78 0.06 0  0.8 0.06 0  0.82 0.06 0  0.84 0.06 0  0.86 0.06 0  0.88 0.06 0  0.9 0.06 0  0.92 0.06 0  0.9399999999999999 0.06 0  0.96 0.06 0  0.98 0.06 0  1 0.06 0  0 0.08 0  0.02 0.08 0  0.04 0.08 0  0.06 0.08 0  0.08 0.08 0  0.1 0.08 0  0.12 0.08 0  0.14 0.08 0  0.16 0.08 0  0.18 0.08 0  0.2 0.08 0  0.22 0.08 0  0.24 0.08 0  0.26 0.08 0  0.28 0.08 0  0.3 0.08 0  0.32 0.08 0  0.34 0.08 0  0.36 0.08 0  0.38 0.08 0  0.4 0.08 0  0.42 0.08 0  0.44 0.08 0  0.46 0.08 0  0.48 0.08 0  0.5 0.08 0  0.52 0.08 0  0.54 0.08 0  0.5600000000000001 0.08 0  0.58 0.08 0  0.6 0.08 0  0.62 0.08 0  0.64 0.08 0  0.66 0.08 0  0.68 0.08 0  0.7 0.08 0  0.72 0.08 0  0.74 0.08 0  0.76 0.08 0  0.78 0.08 0  0.8 0.08 0  0.82 0.08 0  0.84 0.08 0  0.86 0.08 0  0.88 0.08 0  0.9 0.08 0  0.92 0.08 0  0.9399999999999999 0.08 0  0.96 0.08 0  0.98 0.08 0  1 0.08 0  0 0.1 0  0.02 0.1 0  0.04 0.1 0  0.06 0.1 0  0.08 0.1 0  0.1 0.1 0  0.12 0.1 0  0.14 0.1 0  0.16 0.1 0  0.18 0.1 0  0.2 0.1 0  0.22 0.1 0  0.24 0.1 0  0.26 0.1 0  0.28 0.1 0  0.3 0.1 0  0.32 0.1 0  0.34 0.1 0  0.36 0.1 0  0.38 0.1 0  0.4 0.1 0  0.42 0.1 0  0.44 0.1 0  0.46 0.1 0  0.48 0.1 0  0.5 0.1 0  0.52 0.1 0  0.54 0.1 0  0.5600000000000001 0.1 0  0.58 0.1 0  0.6 0.1 0  0.62 0.1 0  0.64 0.1 0  0.66 0.1 0  0.68 0.1 0  0.7 0.1 0  0.72 0.1 0  0.74 0.1 0  0.76 0.1 0  0.78 0.1 0  0.8 0.1 0  0.82 0.1 0  0.84 0.1 0  0.86 0.1 0  0.88 0.1 0  0.9 0.1 0  0.92 0.1 0  0.9399999999999999 0.1 0  0.96 0.1 0  0.98 0.1 0  1 0.1 0  0 0.12 0  0.02 0.12 0  0.04 0.12 0  0.06 0.12 0  0.08 0.12 0  0.1 0.12 0  0.12 0.12 0  0.14 0.12 0  0.16 0.12 0  0.18 0.12 0  0.2 0.12 0  0.22 0.12 0  0.24 0.12 0  0.26 0.12 0  0.28 0.12 0  0.3 0.12 0  0.32 0.12 0  0.34 0.12 0  0.36 0.12 0  0.38 0.12 0  0.4 0.12 0  0.42 0.12 0  0.44 0.12 0  0.46 0.12 0  0.48 0.12 0  0.5 0.12 0  0.52 0.12 0  0.54 0.12 0  0.5600000000000001 0.12 0  0.58 0.12 0  0.6 0.12 0  0.62 0.12 0  0.64 0.12 0  0.66 0.12 0  0.68 0.12 0  0.7 0.12 0  0.72 0.12 0  0.74 0.12 0  0.76 0.12 0  0.78 0.12 0  0.8 0.12 0  0.82 0.12 0  0.84 0.12 0  0.86 0.12 0  0.88 0.12 0  0.9 0.12 0  0.92 0.12 0  0.9399999999999999 0.12 0  0.96 0.12 0  0.98 0.12 0  1 0.12 0  0 0.14 0  0.02 0.14 0  0.04 0.14 0  0.06 0.14 0  0.08 0.14 0  0.1 0.14 0  0.12 0.14 0  0.14 0.14 0  0.16 0.14 0  0.18 0.14 0  0.2 0.14 0  0.22 0.14 0  0.24 0.14 0  0.26 0.14 0  0.28 0.14 0  0.3 0.14 0  0.32 0.14 0  0.34 0.14 0  0.36 0.14 0  0.38 0.14 0  0.4 0.14 0  0.42 0.14 0  0.44 0.14 0  0.46 0.14 0  0.48 0.14 0  0.5 0.14 0  0.52 0.14 0  0.54 0.14 0  0.5600000000000001 0.14 0  0.58 0.14 0  0.6 0.14 0  0.62 0.14 0  0.64 0.14 0  0.66 0.14 0  0.68 0.14 0  0.7 0.14 0  0.72 0.14 0  0.74 0.14 0  0.76 0.14 0  0.78 0.14 0  0.8 0.14 0  0.82 0.14 0  0.84 0.14 0  0.86 0.14 0  0.88 0.14 0  0.9 0.14 0  0.92 0.14 0  0.9399999999999999 0.14 0  0.96 0.14 0  0.98 0.14 0  1 0.14 0  0 0.16 0  0.02 0.16 0  0.04 0.16 0  0.06 0.16 0  0.08 0.16 0  0.1 0.16 0  0.12 0.16 0  0.14 0.16 0  0.16 0.16 0  0.18 0.16 0  0.2 0.16 0  0.22 0.16 0  0.24 0.16 0  0.26 0.16 0  0.28 0.16 0  0.3 0.16 0  0.32 0.16 0  0.34 0.16 0  0.36 0.16 0  0.38 0.16 0  0.4 0.16 0  0.42 0.16 0  0.44 0.16 0  0.46 0.16 0  0.48 0.16 0  0.5 0.16 0  0.52 0.16 0  0.54 0.16 0  0.5600000000000001 0.16 0  0.58 0.16 0  0.6 0.16 0  0.62 0.16 0  0.64 0.16 0  0.66 0.16 0  0.68 0.16 0  0.7 0.16 0  0.72 0.16 0  0.74 0.16 0  0.76 0.16 0  0.78 0.16 0  0.8 0.16 0  0.82 0.16 0  0.84 0.16 0  0.86 0.16 0  0.88 0.16 0  0.9 0.16 0  0.92 0.16 0  0.9399999999999999 0.16 0  0.96 0.16 0  0.98 0.16 0  1 0.16 0  0 0.18 0  0.02 0.18 0  0.04 0.18 0  0.06 0.18 0  0.08 0.18 0  0.1 0.18 0  0.12 0.18 0  0.14 0.18 0  0.16 0.18 0  0.18 0.18 0  0.2 0.18 0  0.22 0.18 0  0.24 0.18 0  0.26 0.18 0  0.28 0.18 0  0.3 0.18 0  0.32 0.18 0  0.34 0.18 0  0.36 0.18 0  0.38 0.18 0  0.4 0.18 0  0.42 0.18 0  0.44 0.18 0  0.46 0.18 0  0.48 0.18 0  0.5 0.18 0  0.52 0.18 0  0.54 0.18 0  0.5600000000000001 0.18 0  0.58 0.18 0  0.6 0.18 0  0.62 0.18 0  0.64 0.18 0  0.66 0.18 0  0.68 0.18 0  0.7 0.18 0  0.72 0.18 0  0.74 0.18 0  0.76 0.18 0  0.78 0.18 0  0.8 0.18 0  0.82 0.18 0  0.84 0.18 0  0.86 0.18 0  0.88 0.18 0  0.9 0.18 0  0.92 0.18 0  0.9399999999999999 0.18 0  0.96 0.18 0  0.98 0.18 0  1 0.18 0  0 0.2 0  0.02 0.2 0  0.04 0.2 0  0.06 0.2 0  0.08 0.2 0  0.1 0.2 0  0.12 0.2 0  0.14 0.2 0  0.16 0.2 0  0.18 0.2 0  0.2 0.2 0  0.22 0.2 0  0.24 0.2 0  0.26 0.2 0  0.28 0.2 0  0.3 0.2 0  0.32 0.2 0  0.34 0.2 0  0.36 0.2 0  0.38 0.2 0  0.4 0.2 0  0.42 0.2 0  0.44 0.2 0  0.46 0.2 0  0.48 0.2 0  0.5 0.2 0  0.52 0.2 0  0.54 0.2 0  0.5600000000000001 0.2 0  0.58 0.2 0  0.6 0.2 0  0.62 0.2 0  0.64 0.2 0  0.66 0.2 0  0.68 0.2 0  0.7 0.2 0  0.72 0.2 0  0.74 0.2 0  0.76 0.2 0  0.78 0.2 0  0.8 0.2 0  0.82 0.2 0  0.84 0.2 0  0.86 0.2 0  0.88 0.2 0  0.9 0.2 0  0.92 0.2 0  0.9399999999999999 0.2 0  0.96 0.2 0  0.98 0.2 0  1 0.2 0  0 0.22 0  0.02 0.22 0  0.04 0.22 0  0.06 0.22 0  0.08 0.22 0  0.1 0.22 0  0.12 0.22 0  0.14 0.22 0  0.16 0.22 0  0.18 0.22 0  0.2 0.22 0  0.22 0.22 0  0.24 0.22 0  0.26 0.22 0  0.28 0.22 0  0.3 0.22 0  0.32 0.22 0  0.34 0.22 0  0.36 0.22 0  0.38 0.22 0  0.4 0.22 0  0.42 0.22 0  0.44 0.22 0  0.46 0.22 0  0.48 0.22 0  0.5 0.22 0  0.52 0.22 0  0.54 0.22 0  0.5600000000000001 0.22 0  0.58 0.22 0  0.6 0.22 0  0.62 0.22 0  0.64 0.22 0  0.66 0.22 0  0.68 0.22 0  0.7 0.22 0  0.72 0.22 0  0.74 0.22 0  0.76 0.22 0  0.78 0.22 0  0.8 0.22 0  0.82 0.22 0  0.84 0.22 0  0.86 0.22 0  0.88 0.22 0  0.9 0.22 0  0.92 0.22 0  0.9399999999999999 0.22 0  0.96 0.22 0  0.98 0.22 0  1 0.22 0  0 0.24 0  0.02 0.24 0  0.04 0.24 0  0.06 0.24 0  0.08 0.24 0  0.1 0.24 0  0.12 0.24 0  0.14 0.24 0  0.16 0.24 0  0.18 0.24 0  0.2 0.24 0  0.22 0.24 0  0.24 0.24 0  0.26 0.24 0  0.28 0.24 0  0.3 0.24 0  0.32 0.24 0  0.34 0.24 0  0.36 0.24 0  0.38 0.24 0  0.4 0.24 0  0.42 0.24 0  0.44 0.24 0  0.46 0.24 0  0.48 0.24 0  0.5 0.24 0  0.52 0.24 0  0.54 0.24 0  0.5600000000000001 0.24 0  0.58 0.24 0  0.6 0.24 0  0.62 0.24 0  0.64 0.24 0  0.66 0.24 0  0.68 0.24 0  0.7 0.24 0  0.72 0.24 0  0.74 0.24 0  0.76 0.24 0  0.78 0.24 0  0.8 0.24 0  0.82 0.24 0  0.84 0.24 0  0.86 0.24 0  0.88 0.24 0  0.9 0.24 0  0.92 0.24 0  0.9399999999999999 0.24 0  0.96 0.24 0  0.98 0.24 0  1 0.24 0  0 0.26 0  0.02 0.26 0  0.04 0.26 0  0.06 0.26 0  0.08 0.26 0  0.1 0.26 0  0.12 0.26 0  0.14 0.26 0  0.16 0.26 0  0.18 0.26 0  0.2 0.26 0  0.22 0.26 0  0.24 0.26 0  0.26 0.26 0  0.28 0.26 0  0.3 0.26 0  0.32 0.26 0  0.34 0.26 0  0.36 0.26 0  0.38 0.26 0  0.4 0.26 0  0.42 0.26 0  0.44 0.26 0  0.46 0.26 0  0.48 0.26 0  0.5 0.26 0  0.52 0.26 0  0.54 0.26 0  0.5600000000000001 0.26 0  0.58 0.26 0  0.6 0.26 0  0.62 0.26 0  0.64 0.26 0  0.66 0.26 0  0.68 0.26 0  0.7 0.26 0  0.72 0.26 0  0.74 0.26 0  0.76 0.26 0  0.78 0.26 0  0.8 0.26 0  0.82 0.26 0  0.84 0.26 0  0.86 0.26 0  0.88 0.26 0  0.9 0.26 0  0.92 0.26 0  0.9399999999999999 0.26 0  0.96 0.26 0  0.98 0.26 0  1 0.26 0  0 0.28 0  0.02 0.28 0  0.04 0.28 0  0.06 0.28 0  0.08 0.28 0  0.1 0.28 0  0.12 0.28 0  0.14 0.28 0  0.16 0.28 0  0.18 0.28 0  0.2 0.28 0  0.22 0.28 0  0.24 0.28 0  0.26 0.28 0  0.28 0.28 0  0.3 0.28 0  0.32 0.28 0  0.34 0.28 0  0.36 0.28 0  0.38 0.28 0  0.4 0.28 0  0.42 0.28 0  0.44 0.28 0  0.46 0.28 0  0.48 0.28 0  0.5 0.28 0  0.52 0.28 0  0.54 0.28 0  0.5600000000000001 0.28 0  0.58 0.28 0  0.6 0.28 0  0.62 0.28 0  0.64 0.28 0  0.66 0.28 0  0.68 0.28 0  0.7 0.28 0  0.72 0.28 0  0.74 0.28 0  0.76 0.28 0  0.78 0.28 0  0.8 0.28 0  0.82 0.28 0  0.84 0.28 0  0.86 0.28
[...]
<PointData  Scalars="f_12"> 
<DataArray  type="Float64"  Name="f_12"  format="ascii">2.0000000000000000e+00  2.0000000000000000e+00  2.0000000000000000e+00  2.0000000000000000e+00  2.0000000000000000e+00  2.0000000000000000e+00  2.0000000000000000e+00  2.0000000000000000e+00  2.0000000000000000e+00  2.0000000000000000e+00  2.0000000000000000e+00  2.0000000000000000e+00  2.0000000000000000e+00  2.0000000000000000e+00  2.0000000000000000e+00  2.0000000000000000e+00  2.0000000000000000e+00  2.0000000000000000e+00  2.0000000000000000e+00  2.0000000000000000e+00  2.0000000000000000e+00  2.0000000000000000e+00  2.0000000000000000e+00  2.0000000000000000e+00  2.0000000000000000e+00  2.0000000000000000e+00  2.0000000000000000e+00  2.0000000000000000e+00  2.0000000000000000e+00  2.0000000000000000e+00  2.0000000000000000e+00  2.0000000000000000e+00  2.0000000000000000e+00  2.0000000000000000e+00  2.0000000000000000e+00  2.0000000000000000e+00  2.0000000000000000e+00  2.0000000000000000e+00  2.0000000000000000e+00  2.0000000000000000e+00  2.0000000000000000e+00  2.0000000000000000e+00  2.0000000000000000e+00  2.0000000000000000e+00  2.0000000000000000e+00  2.0000000000000000e+00  2.0000000000000000e+00  2.0000000000000000e+00  2.0000000000000000e+00  2.0000000000000000e+00  2.0000000000000000e+00  2.0000000000000000e+00  1.8040274785083268e+00  1.6456749318782580e+00  1.5372418241891621e+00  1.4710355168912856e+00  1.4337696173425543e+00  1.4140106551442522e+00  1.4039997621423514e+00  1.3991051729938508e+00  1.3967795246083570e+00  1.3957000863404136e+00  1.3952087608493282e+00  1.3949887902066127e+00  1.3948916916989060e+00  1.3948493531036950e+00  1.3948310886841322e+00  1.3948232836975651e+00  1.3948199762381277e+00  1.3948185851353878e+00  1.3948180039796421e+00  1.3948177626762370e+00  1.3948176630578215e+00  1.3948176221907405e+00  1.3948176056319335e+00  1.3948175992725602e+00  1.3948175976452120e+00  1.3948175993419085e+00  1.3948176058250579e+00  1.3948176226573636e+00  1.3948176641536227e+00  1.3948177652198548e+00  1.3948180098282081e+00  1.3948185984489256e+00  1.3948200062073390e+00  1.3948233503074763e+00  1.3948312345902356e+00  1.3948496673499591e+00  1.3948923552134318e+00  1.3949901584335189e+00  1.3952115023415286e+00  1.3957053865480977e+00  1.3967893121856441e+00  1.3991221691207969e+00  1.4040267901979961e+00  1.4140480059232863e+00  1.4338086227036684e+00  1.4710473802054520e+00  1.5371673593436874e+00  1.6454374761605173e+00  1.8035957346845699e+00  2.0000000000000000e+00  2.0000000000000000e+00  1.6456749318782591e+00  1.3573206205056485e+00  1.1577251445004189e+00  1.0346328262427031e+00  9.6475697980691510e-01  9.2744583593299457e-01  9.0843119792927440e-01  8.9908880321532214e-01  8.9463137935257675e-01  8.9255516004461566e-01  8.9160724593006024e-01  8.9118172902365056e-01  8.9099346135573720e-01  8.9091120047404448e-01  8.9087564895870297e-01  8.9086043169760076e-01  8.9085397366891028e-01  8.9085125382003272e-01  8.9085011617843757e-01  8.9084964329100635e-01  8.9084944786829579e-01  8.9084936762385603e-01  8.9084933508135489e-01  8.9084932257137339e-01  8.9084931935972556e-01  8.9084932267326145e-01  8.9084933536368227e-01  8.9084936830143324e-01  8.9084944944732214e-01  8.9084964692575541e-01  8.9085012446064193e-01  8.9085127249017526e-01  8.9085401525339125e-01  8.9086052306515684e-01  8.9087584659230301e-01  8.9091162028968407e-01  8.9099433437425291e-01  8.9118349912996164e-01  8.9161072660028562e-01  8.9256174930997467e-01  8.9464326399481819e-01  8.9910890521402520e-01  9.0846226048992318e-01  9.2748755622554591e-01  9.6480000690178924e-01  1.0346505373230834e+00  1.1576716921050159e+00  1.3571567840832817e+00  1.6454374761605159e+00  2.0000000000000000e+00  2.0000000000000000e+00  1.5372418241891623e+00  1.1577251445004182e+00  8.9199999035488342e-01  7.2620810352135989e-01  6.3109738548439254e-01  5.7984519285248137e-01  5.5352002179789683e-01  5.4049837307069504e-01  5.3424936343506269e-01  5.3132396881170885e-01  5.2998248226921807e-01  5.2937796440756368e-01  5.2910958471651970e-01  5.2899196343931343e-01  5.2894099152052609e-01  5.2891912037537292e-01  5.2890981796459591e-01  5.2890589230326179e-01  5.2890424729008045e-01  5.2890356235353886e-01  5.2890327886424826e-01  5.2890316229302814e-01  5.2890311495718445e-01  5.2890309673814262e-01  5.2890309204995334e-01  5.2890309685655301e-01  5.2890311528389744e-01  5.2890316307264795e-01  5.2890328066927039e-01  5.2890356647924841e-01  5.2890425662004570e-01  5.2890591316542301e-01  5.2890986402940743e-01  5.2891922064836827e-01  5.2894120626105923e-01  5.2899241473818925e-01  5.2911051254303831e-01  5.2937982299178021e-01  5.2998609096661764e-01  5.3133071339753646e-01  5.3426138147215740e-01  5.4051850923185207e-01  5.5355107837731365e-01  5.7988773032250285e-01  6.3114556436534675e-01  7.2624507909878877e-01  8.9199958845316107e-01  1.1576716921050145e+00  1.5371673593436872e+00  2.0000000000000000e+00  2.0000000000000000e+00  1.4710355168912852e+00  1.0346328262427016e+00  7.2620810352135967e-01  5.3178058817871343e-01  4.1911929007568621e-01  3.5784776832467219e-01  3.2611505335274094e-01  3.1030291725864245e-01  3.0266526583363379e-01  2.9906912582557987e-01  2.9741158590902034e-01  2.9666122070114803e-01  2.9632672342257210e-01  2.9617958367484321e-01  2.9611560695349054e-01  2.9608807257398856e-01  2.9607632914297444e-01  2.9607136087046487e-01  2.9606927414814471e-01  2.9606840344874519e-01  2.9606804236707845e-01  2.9606789362141989e-01  2.9606783312097296e-01  2.9606780980048203e-01  2.9606780378677994e-01  2.9606780992229342e-01  2.9606783345556659e-01  2.9606789441504250e-01  2.9606804419197696e-01  2.9606840758909531e-01  2.9606928343738803e-01  2.9607138146705630e-01  2.9607637421448890e-01  2.9608816975077623e-01  2.9611581295945566e-01  2.9618001198821459e-01  2.9632759411060033e-01  2.9666294456111025e-01  2.9741489376321217e-01  2.9907523856616769e-01  3.0267605334924530e-01  3.1032089140165564e-01  3.2614288060008484e-01  3.5788687507553846e-01  4.1916742078681130e-01  5.3182949958969439e-01  7.2624507909878810e-01  1.0346505373230837e+00  1.4710473802054502e+00  2.0000000000000000e+00  2.0000000000000000e+00  1.4337696173425545e+00  9.6475697980691433e-01  6.3109738548439220e-01  4.1911929007568605e-01  2.9529208739215873e-01  2.2741579611376592e-01  1.9200085766223998e-01  1.7423248815201794e-01  1.6559586265134338e-01  1.6150601709619208e-01  1.5961107143978651e-01  1.5874915587910399e-01  1.5836326784219903e-01  1.5819285108034128e-01  1.5811848541140189e-01  1.5808637362052619e-01  1.5807263612591674e-01  1.5806680787568947e-01  1.5806435358807294e-01  1.5806332705211645e-01  1.5806290039289875e-01  1.5806272426899845e-01  1.5806265249722820e-01  1.5806262478584035e-01  1.5806261762528670e-01  1.5806262490130971e-01  1.5806265281284468e-01  1.5806272501265867e-01  1.5806290209007232e-01  1.5806333087145538e-01  1.5806436208299404e-01  1.5806682653790163e-01  1.5807267656573928e-01  1.5808645990859058e-01  1.5811866633221805e-01  1.5819322290706886e-01  1.5836401462451560e-01  1.5875061617213046e-01  1.5961383892992492e-01  1.6151107111851651e-01  1.6560469212060322e-01  1.7424710795326298e-01  1.9202352859829575e-01  2.2744822112267057e-01  2.9533405669903640e-01  4.1916742078681191e-01  6.3114556436534630e-01  9.6480000690178946e-01  1.4338086227036675e+00  2.0000000000000000e+00  2.0000000000000000e+00  1.4140106551442515e+00  9.2744583593299512e-01  5.7984519285248226e-01  3.5784776832467213e-01  2.2741579611376594e-01  1.5549212303503646e-01  1.1774366235202220e-01  9.8696469718131882e-02  8.9388055921988688e-02  8.4957601363808449e-02  8.2895049101545298e-02  8.1952727608067114e-02  8.1529096919605581e-02  8.1341293335891768e-02  8.1259047808238727e-02  8.1223415457071457e-02  8.1208124720097766e-02  8.1201618793802166e-02  8.1198871764253056e-02  8.1197719896156165e-02  8.1197240019332526e-02  8.1197041492932109e-02  8.1196960429118545e-02  8.1196929074774826e-02  8.1196920957201879e-02  8.1196929177578411e-02  8.1196960708596042e-02  8.1197042146638504e-02  8.1197241498855585e-02  8.1197723195916158e-02  8.1198879033633445e-02  8.1201634602239350e-02  8.1208158609014230e-02  8.1223486947750168e-02  8.1259195911585716e-02  8.1341593898329109e-02  8.1529692692562689e-02  8.1953876994017238e-02  8.2897198070692235e-02  8.4961474947334484e-02  8.9394744896243938e-02  9.8707450181664977e-02  1.1776063953843734e-01  1.5551657799812291e-01  2.2744822112267093e-01  3.5788687507553885e-01  5.7988773032250318e-01  9.2748755622554602e-01  1.4140480059232861e+00  2.0000000000000000e+00  2.0000000000000000e+00  1.4039997621423510e+00  9.0843119792927418e-01  5.5352002179789794e-01  3.2611505335274077e-01  1.9200085766223965e-01  1.1774366235202212e-01  7.8604646367341879e-02  5.8771061151233955e-02  4.9037237937971274e-02  4.4385173196361004e-02  4.2210831627284999e-02  4.1213652393518374e-02  4.0763733678757269e-02  4.0563589559378284e-02  4.0475654059546562e-02  4.0437439186283640e-02  4.0420992492502417e-02  4.0413975491376639e-02  4.0411004975664397e-02  4.0409756341852662e-02  4.0409234947158208e-02  4.0409018774954890e-02  4.0408930328277637e-02  4.0408896058090761e-02  4.0408887169651270e-02  4.0408896144975316e-02  4.0408930563083950e-02  4.0409019319793162e-02  4.0409236169104516e-02  4.0409759040494382e-02  4.0411010858953905e-02  4.0413988144569979e-02  4.0421019301340413e-02  4.0437495045329661e-02  4.0475768281195465e-02  4.0563818217629659e-02  4.0764180531616762e-02  4.1214501984877618e-02  4.2212396862770361e-02  4.4387954225924273e-02  4.9041976454883694e-02  5.8778752794669556e-02  7.8616449915686587e-02  1.1776063953843731e-01  1.9202352859829605e-01  3.2614288060008562e-01  5.5355107837731377e-01  9.0846226048992296e-01  1.4040267901979948e+00  2.0000000000000000e+00  2.0000000000000000e+00  1.3991051729938504e+00  8.9908880321532247e-01  5.4049837307069470e-01  3.1030291725864223e-01  1.7423248815201792e-01  9.8696469718131910e-02  5.8771061151233997e-02  3.8478876054451876e-02  2.8489579719813168e-02  2.3700705459515706e-02  2.1455553558116520e-02  2.0422788282380193e-02  1.9955437481595784e-02  1.9746942598204340e-02  1.9655084175089196e-02  1.9615057896561577e-02  1.9597787432525500e-02  1.9590400844693392e-02  1.9587266506525466e-02  1.9585946043247000e-02  1.9585393468489538e-02  1.9585163900768990e-02  1.9585069794564952e-02  1.9585033270637070e-02  1.9585023782290795e-02  1.9585033340811093e-02  1.9585069983002815e-02  1.9585164334244377e-02  1.9585394431144022e-02  1.9585948146785395e-02  1.9587271040984556e-02  1.9590410481267910e-02  1.9597807594316015e-02  1.9615099351856045e-02  1.9655167769929083e-02  1.9747107522923187e-02  1.9955754939970202e-02  2.0423382534417028e-02  2.1456631245124366e-02  2.3702590584337390e-02  2.8492744173574298e-02  3.8483943903849585e-02  5.8778752794669667e-02  9.8707450181665143e-02  1.7424710795326354e-01  3.1032089140165664e-01  5.4051850923185218e-01  8.9910890521402631e-01  1.3991221691207967e+00  2.0000000000000000e+00  2.0000000000000000e+00  1.3967795246083581e+00  8.9463137935257664e-01  5.3424936343506224e-01  3.0266526583363318e-01  1.6559586265134327e-01  8.9388055921988605e-02  4.9037237937971281e-02  2.8489579719813155e-02  1.8353836639594268e-02  1.3484359180098982e-02  1.1196391989856785e-02  1.0141579094517071e-02  9.6631795045674894e-03  9.4492783912976681e-03  9.3548297742505580e-03  9.3135853950878349e-03  9.2957514843823776e-03  9.2881080818074599e-03  9.2848582245400220e-03  9.2834864138847534e-03  9.2829112646846297e-03  9.2826718835542603e-03  9.2825735866335756e-03  9.2825353787240814e-03  9.2825254388595735e-03  9.2825354331381275e-03  9.2825737317586195e-03  9.2826722143187403e-03  9.2829119915452101e-03  9.2834879842657782e-03  9.2848615692433627e-03  9.2881151002980125e-03  9.2957659736699286e-03  9.3136147716216602e-03  9.3548881473407876e-03  9.4493918027736910e-03  9.6633943632555286e-03  1.0141974773382587e-02  1.1197097766870492e-02  1.3485573520515194e-02  1.8355842602788490e-02  2.8492744173574329e-02  4.9041976454883833e-02  8.9394744896244022e-02  1.6560469212060369e-01  3.0267605334924619e-01  5.3426138147215751e-01  8.9464326399481853e-01  1.3967893121856461e+00  2.0000000000000000e+00  2.0000000000000000e+00  1.3957000863404136e+00  8.9255516004461566e-01  5.3132396881170962e-01  2.9906912582557982e-01  1.6150601709619197e-01  8.4957601363808380e-02  4.4385173196360983e-02  2.3700705459515720e-02  1.3484359180098996e-02  8.5693182638240523e-03  6.2565197160193015e-03  5.1886041296419850e-03  4.7034851662444031e-03  4.4862241225106401e-03  4.3901326304421678e-03  4.3481007927061808e-03  4.3298960869011908e-03  4.3220808403468258e-03  4.3187524719351935e-03  4.3173452517079377e-03  4.3167543216430151e-03  4.3165079929781639e-03  4.3164066948370508e-03  4.3163672691618809e-03  4.3163570002732717e-03  4.3163673098092804e-03  4.3164068024692456e-03  4.3165082359029466e-03  4.3167548495660112e-03  4.3173463787110917e-03  4.3187548420935912e-03  4.3220857480077467e-03  4.3299060776964245e-03  4.3481207539474631e-03  4.3901716922579853e-03  4.4862988164900601e-03  4.7036243659349108e-03  5.1888561897116660e-03  6.2569616930533353e-03  8.5700658219055904e-03  1.3485573520515192e-02  2.3702590584337407e-02  4.4387954225924356e-02  8.4961474947334706e-02  1.6151107111851687e-01  2.9907523856616897e-01  5.3133071339753701e-01  8.9256174930997523e-01  1.3957053865480973e+00  2.0000000000000000e+00  2.0000000000000000e+00  1.3952087608493278e+00  8.9160724593006135e-01  5.2998248226921907e-01  2.9741158590902067e-01  1.5961107143978673e-01  8.2895049101545396e-02  4.2210831627285089e-02  2.1455553558116573e-02  1.1196391989856808e-02  6.2565197160193110e-03  3.9298462228049167e-03  2.8544309954427168e-03  2.3653765842903247e-03  2.1461042134508154e-03  2.0490087217282069e-03  2.0064861721957386e-03  1.9880461189027521e-03  1.9801199001622726e-03  1.9767400009841501e-03  1.9753091821331490e-03  1.9747075831511550e-03  1.9744564942644734e-03  1.9743531145815108e-03  1.9743128355895804e-03  1.9743023342982074e-03  1.9743128649199844e-03  1.9743531916666256e-03  1.9744566664753084e-03  1.9747079530687659e-03  1.9753099620176879e-03  1.9767416196331319e-03  1.9801232056601095e-03  1.9880527512893828e-03  2.0064992245622006e-03  2.0490338649431922e-03  2.1461515149969776e-03  2.3654632679277082e-03  2.8545852896304613e-03  3.9301121112615472e-03  6.2569616930533527e-03  1.1197097766870489e-02  2.1456631245124383e-02  4.2212396862770514e-02  8.2897198070692485e-02  1.5961383892992556e-01  2.9741489376321328e-01  5.2998609096661842e-01  8.9161072660028662e-01  1.3952115023415281e+00  2.0000000000000000e+00  2.0000000000000000e+00  1.3949887902066134e+00  8.9118172902365111e-01  5.2937796440756402e-01  2.9666122070114814e-01  1.5874915587910421e-01  8.1952727608067197e-02  4.1213652393518437e-02  2.0422788282380269e-02  1.0141579094517128e-02  5.1886041296420092e-03  2.8544309954427246e-03  1.7748659334501119e-03  1.2835840336867250e-03  1.0631482521936343e-03  9.6545985971839381e-04  9.2264176055074779e-04  9.0405728740540036e-04  8.9606175613867682e-04  8.9264912850867237e-04  8.9120308303424151e-04  8.9059449687005094e-04  8.9034024671288449e-04  8.9023546697570514e-04  8.9019460785573446e-04  8.9018394725711098e-04  8.9019462834603804e-04  8.9023552041192825e-04  8.9034036483441484e-04  8.9059474756134473e-04  8.9120360476936829e-04  8.9265019673213160e-04  8.9606390675685634e-04  9.0406153896536664e-04  9.2264999932534729e-04  9.6547547844634551e-04  1.0631771544141670e-03  1.2836361097834583e-03  1.7749570422131466e-03  2.8545852896304726e-03  5.1888561897117007e-03  1.0141974773382616e-02  2.0423382534417077e-02  4.1214501984877798e-02  8.1953876994017710e-02  1.5875061617213138e-01  2.9666294456111181e-01  5.2937982299178188e-01  8.9118349912996420e-01  1.3949901584335198e+00  2.0000000000000000e+00  2.0000000000000000e+00  1.3948916916989065e+00  8.9099346135573687e-01  5.2910958471651970e-01  2.9632672342257216e-01  1.5836326784219937e-01  8.1529096919605637e-02  4.0763733678757456e-02  1.9955437481595908e-02  9.6631795045675623e-03  4.7034851662444361e-03  2.3653765842903403e-03  1.2835840336867304e-03  7.9107981284511823e-04  5.6999183540121570e-04  4.7196416875895940e-04  4.2897358625276235e-04  4.1030323061042360e-04  4.0226573676150745e-04  3.9883295494149107e-04  3.9737738024878854e-04  3.9676435395183141e-04  3.9650806584370609e-04  3.9640237161016258e-04  3.9636112934486134e-04  3.9635036263949061e-04  3.9636114323082268e-04  3.9640240753684538e-04  3.9650814440212947e-04  3.9676451862732243e-04  3.9737771845703283e-04  3.9883363783553604e-04  4.0226709180573114e-04  4.1030586931827955e-04  4.2897862037800005e-04  4.7197355968145829e-04  5.7000892782713575e-04  7.9111009357136824e-04  1.2836361097834643e-03  2.3654632679277299e-03  4.7036243659349551e-03  9.6633943632555772e-03  1.9955754939970295e-02  4.0764180531617018e-02  8.1529692692563285e-02  1.5836401462451674e-01  2.9632759411060233e-01  5.2911051254304053e-01  8.9099433437425624e-01  1.3948923552134356e+00  2.0000000000000000e+00  2.0000000000000000e+00  1.3948493531036941e+00  8.9091120047404448e-01  5.2899196343931365e-01  2.9617958367484326e-01  1.5819285108034140e-01  8.1341293335891851e-02  4.0563589559378346e-02  1.9746942598204399e-02  9.4492783912977062e-03  4.4862241225106566e-03  2.1461042134508254e-03  1.0631482521936378e-03  5.6999183540121560e-04  3.4854853677603260e-04  2.5033225862387592e-04  2.0724390081030023e-04  1.8852394068227403e-04  1.8046177099477169e-04  1.7701693258560626e-04  1.7555556331509101e-04  1.7493979471000450e-04  1.7468222933404948e-04  1.7457595419684914e-04  1.7453446578493138e-04  1.7452363032479531e-04  1.7453447492950271e-04  1.7457597766633003e-04  1.7468228008863637e-04  1.7493989976993227e-04  1.7555577619655075e-04  1.7701735640102164e-04  1.8046259971152664e-04  1.8852553014026563e-04  2.0724688604211640e-04  2.5033773849492379e-04  3.4855834779486073e-04  5.7000892782713857e-04  1.0631771544141757e-03  2.1461515149970019e-03  4.4862988164901200e-03  9.4493918027737690e-03  1.9747107522923343e-02  4.0563818217630013e-02  8.1341593898329748e-02  1.5819322290707022e-01  2.9618001198821736e-01  5.2899241473819181e-01  8.9091162028968796e-01  1.3948496673499622e+00  2.0000000000000000e+00  2.0000000000000000e+00  1.3948310886841333e+00  8.9087564895870508e-01  5.2894099152052654e-01  2.9611560695349071e-01  1.5811848541140192e-01  8.1259047808238630e-02  4.0475654059546527e-02  1.9655084175089203e-02  9.3548297742505684e-03  4.3901326304421721e-03  2.0490087217282121e-03  9.6545985971839370e-04  4.7196416875895913e-04  2.5033225862387576e-04  1.5201386682413078e-04  1.0887154969354813e-04  9.0123702364203166e-05  8.2047410232831899e-05  7.8595552209565931e-05  7.7130753276240892e-05  7.6513335887223435e-05  7.6254991082021307e-05  7.6148356597182477e-05  7.6106714164661646e-05  7.6095835307970426e-05  7.6106720026147042e-05  7.6148371518825825e-05  7.6255022992375210e-05  7.6513401103441182e-05  7.7130883635667433e-05  7.8595808071352930e-05  8.2047903222785419e-05  9.0124633652340972e-05  1.0887327169960009e-04  1.5201697775562713e-04  2.5033773849492488e-04  4.7197355968146241e-04  9.6547547844635419e-04  2.0490338649432160e-03  4.3901716922580348e-03  9.3548881473408604e-03  1.9655167769929240e-02  4.0475768281195805e-02  8.1259195911586354e-02  1.5811866633221930e-01  2.9611581295945794e-01  5.2894120626106211e-01  8.9087584659230656e-01  1.3948312345902381e+00  2.0000000000000000e+00  2.0000000000000000e+00  1.3948232836975654e+00  8.9086043169760099e-01  5.2891912037537325e-01  2.9608807257398839e-01  1.5808637362052624e-01  8.1223415457071416e-02  4.0437439186283626e-02  1.9615057896561573e-02  9.3135853950878419e-03  4.3481007927061791e-03  2.0064861721957395e-03  9.2264176055074909e-04  4.2897358625276213e